32
Frame: 0; Minimum total energy: -5.90179e-12erg; Total energy at start (perturbed): 1.95038e-10erg; Total energy now: 1.95038e-10erg; Discrepancy from stable energy: 3404.73%
Xe	0.109760866352	1.06671611782	0.723784613333
Xe	0.830574171935	2.66197842789	3.54921774094
Xe	3.49998359094	-0.0154024113079	4.26505931702
Xe	2.78790786012	3.08882863804	0.00153075388531
Xe	5.71013198495	-0.184163570784	0.0414975060662
Xe	5.66870079283	1.88785773943	2.72262257651
Xe	9.61317449092	1.00994567273	2.35939583877
Xe	9.01305640707	3.24620519918	0.145611344797
Xe	-0.108727856101	5.60825277802	-0.158085652551
Xe	1.04878845004	9.16731126349	4.17395173421
Xe	3.15746799818	6.64439186034	3.92575195725
Xe	2.40680227787	8.37188331133	-0.511910400918
Xe	6.74936146606	5.81594292866	-0.958295970756
Xe	6.43762833386	8.31474997374	3.19419420207
Xe	9.27375075434	5.41802721671	2.50169318057
Xe	8.51396249164	8.91110715643	0.328131819978
Xe	-1.16067694621	0.621560141475	5.35297359065
Xe	0.421189694429	2.06476340915	9.66834547566
Xe	2.90841019405	0.95178346666	10.2945155194
Xe	4.00817288905	4.25050369621	7.3316297268
Xe	6.88565306457	-0.0234518768595	5.614248987
Xe	5.87372538277	2.0028504026	9.59611991031
Xe	8.52694639627	-0.0382304439611	9.08161209826
Xe	9.55936631761	2.4243483273	5.24887495723
Xe	0.940599975591	6.61663831513	6.26293184074
Xe	-0.225465091486	10.1423547781	8.81495335942
Xe	3.33075875411	5.32172922891	9.90297644965
Xe	4.20382301807	8.89759669441	5.4487709387
Xe	4.99286743819	5.59963935169	4.9215158696
Xe	5.64881784788	9.44725370716	9.38468723654
Xe	8.65960312083	6.77320624375	8.62386621633
Xe	8.27455924235	10.2017889582	7.33655997636
32
Frame: 1; Minimum total energy: -5.90179e-12erg; Total energy at start (perturbed): 1.95038e-10erg; Total energy now: 1.95038e-10erg; Discrepancy from stable energy: 3404.73%
Xe	0.109760866352	1.06671611782	0.723784613333
Xe	0.830574171935	2.66197842789	3.54921774094
Xe	3.49998359094	-0.0154024113079	4.26505931702
Xe	2.78790786012	3.08882863804	0.00153075388523
Xe	5.71013198495	-0.184163570784	0.0414975060662
Xe	5.66870079283	1.88785773943	2.72262257651
Xe	9.61317449092	1.00994567273	2.35939583877
Xe	9.01305640707	3.24620519918	0.145611344797
Xe	-0.108727856101	5.60825277802	-0.158085652551
Xe	1.04878845004	9.16731126349	4.17395173421
Xe	3.15746799818	6.64439186034	3.92575195725
Xe	2.40680227787	8.37188331133	-0.511910400918
Xe	6.74936146606	5.81594292866	-0.958295970756
Xe	6.43762833386	8.31474997374	3.19419420207
Xe	9.27375075434	5.41802721671	2.50169318057
Xe	8.51396249164	8.91110715643	0.328131819978
Xe	-1.16067694621	0.621560141476	5.35297359065
Xe	0.421189694429	2.06476340915	9.66834547566
Xe	2.90841019405	0.95178346666	10.2945155194
Xe	4.00817288905	4.25050369621	7.3316297268
Xe	6.88565306457	-0.0234518768595	5.614248987
Xe	5.87372538277	2.0028504026	9.59611991031
Xe	8.52694639627	-0.0382304439614	9.08161209826
Xe	9.55936631761	2.4243483273	5.24887495723
Xe	0.940599975591	6.61663831513	6.26293184074
Xe	-0.225465091486	10.1423547781	8.81495335942
Xe	3.33075875411	5.32172922891	9.90297644965
Xe	4.20382301807	8.89759669441	5.4487709387
Xe	4.99286743819	5.59963935169	4.9215158696
Xe	5.64881784788	9.44725370716	9.38468723654
Xe	8.65960312083	6.77320624375	8.62386621633
Xe	8.27455924235	10.2017889582	7.33655997636
32
Frame: 2; Minimum total energy: -5.90179e-12erg; Total energy at start (perturbed): 1.95038e-10erg; Total energy now: 7.76182e-11erg; Discrepancy from stable energy: 1415.16%
Xe	0.110513200266	1.06495292174	0.721740712383
Xe	0.831684942579	2.66369944833	3.54971345876
Xe	3.49809147232	-0.0163628590696	4.26570339877
Xe	2.7883709942	3.09519104639	0.00946446474529
Xe	5.71042973324	-0.185656902597	0.0413354959891
Xe	5.66982147902	1.88994623929	2.72219934544
Xe	9.61039464953	1.0066360321	2.35839569246
Xe	9.01248522407	3.24558201237	0.141437658491
Xe	-0.108970346174	5.60824224448	-0.158126052737
Xe	1.0462566194	9.16995271027	4.17235577219
Xe	2.97945940948	6.7172092869	3.82971709125
Xe	2.40686593882	8.37234327926	-0.511706879362
Xe	6.74846630035	5.81580323719	-0.957631031119
Xe	6.43937674158	8.31488070851	3.19221475972
Xe	9.27393043533	5.41967037041	2.50357134236
Xe	8.51439944538	8.91138841779	0.327703077325
Xe	-1.06730395927	0.483738205047	5.36374254016
Xe	0.402546227451	2.07186046971	9.66304049217
Xe	2.92020631466	0.934817816992	10.2908450725
Xe	4.00785095532	4.24100616103	7.32521126689
Xe	6.88238493374	-0.0197193859826	5.61035787306
Xe	5.87499349503	2.00464137306	9.59517714142
Xe	8.53126302967	-0.0174690698585	9.10048532361
Xe	9.4454998028	2.53293292512	5.2461348033
Xe	0.93843474761	6.61501961735	6.26577956562
Xe	-0.225372036282	10.1423165446	8.81497714715
Xe	3.32785535848	5.32730327912	9.91139288936
Xe	4.20634487177	8.90568111465	5.45626195749
Xe	5.13247545463	5.50918034157	4.99284605212
Xe	5.64774262209	9.44690828954	9.3852110712
Xe	8.6602710366	6.77306519637	8.62303772352
Xe	8.27559903305	10.1706032952	7.31671160899
32
Frame: 3; Minimum total energy: -5.90179e-12erg; Total energy at start (perturbed): 1.95038e-10erg; Total energy now: 4.5816e-11erg; Discrepancy from stable energy: 876.307%
Xe	0.113933715262	1.05696679616	0.712506338573
Xe	0.835873424549	2.67110506548	3.55255781661
Xe	3.48951295701	-0.0206181949123	4.26854346255
Xe	2.79038404967	3.12064553224	0.0423117168485
Xe	5.71186082015	-0.192468407344	0.0406755737744
Xe	5.67483306937	1.89938759285	2.72025718787
Xe	9.59875359944	0.992430464302	2.3581360753
Xe	9.00994904928	3.24283152262	0.122714429324
Xe	-0.110100929383	5.60820623961	-0.158302167438
Xe	1.02952255742	9.18785479327	4.16649918651
Xe	2.88094214646	6.7240674656	3.74516510122
Xe	2.40713613606	8.37450337657	-0.510751202973
Xe	6.74439293346	5.81518576022	-0.95461062557
Xe	6.44638396283	8.31485783814	3.18384593306
Xe	9.27473368277	5.42709455352	2.5118486233
Xe	8.51641319138	8.91267877013	0.325718047048
Xe	-0.987714275859	0.364309610274	5.37760081842
Xe	0.331024248596	2.09947293011	9.64206543272
Xe	2.96328686267	0.866615665731	10.2749894871
Xe	3.99789573535	4.19522718382	7.3087907601
Xe	6.86863987886	-0.00398046579003	5.59434482508
Xe	5.88066447473	2.01311939209	9.59088691092
Xe	8.5470124534	0.0509356467546	9.16332248139
Xe	9.34998884706	2.63094445727	5.24976031057
Xe	0.927535324111	6.60745943141	6.28076645299
Xe	-0.224957611565	10.1421285609	8.81510480034
Xe	3.3158180477	5.35106129214	9.94574586504
Xe	4.2150378151	8.93010718793	5.48366030588
Xe	5.23436991164	5.47368526929	4.99087631795
Xe	5.64298706183	9.44542994403	9.38754051227
Xe	8.66332684831	6.77223384463	8.61934376858
Xe	8.28260761567	10.06242091	7.25277120062
32
Frame: 4; Minimum total energy: -5.90179e-12erg; Total energy at start (perturbed): 1.95038e-10erg; Total energy now: 2.29443e-11erg; Discrepancy from stable energy: 488.768%
Xe	0.125755501584	1.028840584	0.680678035282
Xe	0.8480340302	2.69576427544	3.56390624171
Xe	3.45923818946	-0.0342418869183	4.27741176913
Xe	2.7972444343	3.17313945119	0.125047272069
Xe	5.71816423902	-0.217104908977	0.0394803121763
Xe	5.69149749359	1.93268639639	2.71328992557
Xe	9.56044638776	0.94562242786	2.36702997076
Xe	9.00191839633	3.23382635288	0.0599880733803
Xe	-0.114613059056	5.60823322936	-0.158860282761
Xe	0.96568327267	9.2578812044	4.15130144521
Xe	2.77509891215	6.66796662773	3.58109350328
Xe	2.40780673484	8.38335785166	-0.506719991414
Xe	6.72975629979	5.81326778693	-0.943836960183
Xe	6.46793022715	8.31516671919	3.15668816856
Xe	9.27738864567	5.45185381473	2.53876227894
Xe	8.5240453033	8.91747800495	0.318057480874
Xe	-0.911001905008	0.238062624346	5.40297264963
Xe	0.19453560577	2.1555946967	9.59529376523
Xe	3.01956907327	0.711416357534	10.232791829
Xe	3.95336341115	4.06149672873	7.28097712703
Xe	6.83306105195	0.0374066477182	5.55646708906
Xe	5.89932671545	2.04768869904	9.57579645887
Xe	8.58162619286	0.132426732061	9.2456037179
Xe	9.25810122699	2.73972656307	5.26839125257
Xe	0.892935213009	6.58285610716	6.33136097067
Xe	-0.223599525988	10.1414165667	8.8156619599
Xe	3.28550245569	5.41933884854	10.0262047685
Xe	4.23048818682	8.9809382109	5.55566355481
Xe	5.41494587396	5.4599201171	4.90717509602
Xe	5.62761963915	9.44116736556	9.39512315795
Xe	8.67459038101	6.7662671858	8.6073981395
Xe	8.31529679917	9.89266363822	7.17786834258
32
Frame: 5; Minimum total energy: -5.90179e-12erg; Total energy at start (perturbed): 1.95038e-10erg; Total energy now: 9.50431e-12erg; Discrepancy from stable energy: 261.041%
Xe	0.151276683074	0.945831608831	0.601335449421
Xe	0.873352846892	2.76164010517	3.59694546549
Xe	3.37210016468	-0.060951127284	4.29264642044
Xe	2.82381682066	3.19805707004	0.2622775605
Xe	5.74477673658	-0.291328067674	0.0432240080614
Xe	5.73027303207	2.02954101309	2.69163481765
Xe	9.46197656523	0.827132772124	2.40106506362
Xe	8.98778598898	3.20901140682	-0.0911677236684
Xe	-0.132562548934	5.60941176108	-0.159967785873
Xe	0.829570337137	9.4050528964	4.12352483497
Xe	2.70938089782	6.52820603804	3.34021631391
Xe	2.40630724442	8.42336501925	-0.487202871412
Xe	6.68426536222	5.81074844563	-0.911243987632
Xe	6.51327842936	8.32980067653	3.08963901386
Xe	9.28384438195	5.51039966983	2.5996069407
Xe	8.55204085247	8.93401430595	0.28849797809
Xe	-0.843862589504	0.0995208518794	5.45415033967
Xe	0.049724236975	2.22819575392	9.51636158067
Xe	2.9688725206	0.494609756369	10.1734151114
Xe	3.86921218332	3.85837283704	7.20645129594
Xe	6.78392954469	0.0899962288572	5.51935749838
Xe	5.93443154488	2.16356560277	9.54032725501
Xe	8.67116496017	0.163299604917	9.31532831629
Xe	9.17786926421	2.87085998027	5.32042879911
Xe	0.829216486361	6.53199308893	6.43514538478
Xe	-0.219339646989	10.1386522993	8.81821684587
Xe	3.24788390678	5.54590279204	10.0824632318
Xe	4.22965118498	9.02378286767	5.6838931619
Xe	5.6445982807	5.44104306529	4.79579699113
Xe	5.5882758611	9.43133810102	9.41374132015
Xe	8.71171742336	6.72056368523	8.58320808802
Xe	8.38437910316	9.72370731992	7.09245878584
32
Frame: 6; Minimum total energy: -5.90179e-12erg; Total energy at start (perturbed): 1.95038e-10erg; Total energy now: 7.63583e-13erg; Discrepancy from stable energy: 112.938%
Xe	0.131249373501	0.658502818352	0.480011586137
Xe	0.892401972593	2.93889932872	3.68274729786
Xe	3.13269765763	-0.0524903527425	4.27195712749
Xe	2.96701189405	3.16962405953	0.502225267403
Xe	5.83759483444	-0.501591494732	0.0680395581513
Xe	5.78539961903	2.32206589524	2.61257369819
Xe	9.23199437217	0.544304503531	2.44508562991
Xe	9.00914850541	3.09978536358	-0.379412392328
Xe	-0.214310139541	5.61689690012	-0.162072052607
Xe	0.64129574026	9.470603508	4.01568402786
Xe	2.58182966258	6.37206073286	2.99978931439
Xe	2.3662520754	8.67995204163	-0.349324218416
Xe	6.51687013103	5.83684250839	-0.790418075523
Xe	6.55293125947	8.47646189227	2.94598157811
Xe	9.30500990113	5.62691636269	2.69258050972
Xe	8.70251001454	9.00877457843	0.117000744167
Xe	-0.80898362028	-0.0505833669362	5.61542914836
Xe	-0.20009417943	2.40940779145	9.28478846527
Xe	2.81862995371	0.125435495582	10.0366425964
Xe	3.62824099589	3.56522918018	6.97526562073
Xe	6.7220579857	0.110027676154	5.55333652188
Xe	5.92732578631	2.42443568079	9.53333454199
Xe	8.93030069658	0.0957529187692	9.4132775918
Xe	9.11263518537	3.10203014502	5.48157679015
Xe	0.734751371722	6.44650667417	6.59289146307
Xe	-0.19820166611	10.1174413777	8.8357978225
Xe	3.2059916589	5.64726099695	9.89285510584
Xe	4.19267992135	8.95824073558	5.93691408953
Xe	5.97145182024	5.26467572866	4.76098421092
Xe	5.49316203411	9.39463081036	9.4470680811
Xe	8.85876079917	6.36731703967	8.5904261719
Xe	8.51750790094	9.62995370684	6.79030189317
32
Frame: 7; Minimum total energy: -5.90179e-12erg; Total energy at start (perturbed): 1.95038e-10erg; Total energy now: -9.28209e-13erg; Discrepancy from stable energy: 84.2724%
Xe	0.108060933518	0.575839445916	0.475400243658
Xe	0.805724932854	2.97771855956	3.71910536963
Xe	3.13050622044	-0.0271501734309	4.24451996467
Xe	2.93958729796	3.18206325658	0.407198789617
Xe	5.84888771005	-0.510652672602	0.119925176759
Xe	5.83583165883	2.3048225633	2.58161238607
Xe	9.18454317304	0.465010698574	2.45404750561
Xe	9.03436616695	3.06665642063	-0.388176185281
Xe	-0.228467481005	5.63085501833	-0.177629002574
Xe	0.61058361878	9.26190312872	3.87956356413
Xe	2.61481533106	6.34832334342	2.96173889789
Xe	2.34964264816	8.75179368757	-0.301446547726
Xe	6.47153179729	5.87698460256	-0.687245620921
Xe	6.47477040105	8.53425233733	2.96760441956
Xe	9.33418600628	5.66250276406	2.65800364657
Xe	8.8275175062	9.03362677831	-0.0107294627765
Xe	-0.890580003283	0.0836343314252	5.72292050384
Xe	-0.201460578576	2.47497041593	9.21300355464
Xe	2.81197450709	0.0945245577088	9.97035385296
Xe	3.48180594008	3.44456049099	6.81571991453
Xe	6.61305127773	0.18488989493	5.55634044805
Xe	5.95377910879	2.41402817384	9.55733882296
Xe	8.91150556066	0.0564504689871	9.42388851846
Xe	9.14930053301	3.10384261656	5.5627094149
Xe	0.69877045305	6.42641628366	6.61517602846
Xe	-0.182171563529	10.0495551482	8.85732979835
Xe	3.1144281967	5.68574057487	9.84192417416
Xe	4.15820927944	8.9014051573	5.94196293291
Xe	5.99246063141	5.33430923743	4.81055291378
Xe	5.51623006705	9.34236245677	9.42601523689
Xe	8.91285816639	6.29756410932	8.56350392628
Xe	8.60284851149	9.43949109708	6.75786130196
32
Frame: 8; Minimum total energy: -5.90179e-12erg; Total energy at start (perturbed): 1.95038e-10erg; Total energy now: -9.28209e-13erg; Discrepancy from stable energy: 84.2724%
Xe	0.108060933518	0.575839445916	0.475400243658
Xe	0.805724932854	2.97771855956	3.71910536963
Xe	3.13050622044	-0.027150173431	4.24451996467
Xe	2.93958729796	3.18206325658	0.407198789617
Xe	5.84888771005	-0.510652672602	0.119925176759
Xe	5.83583165883	2.3048225633	2.58161238607
Xe	9.18454317304	0.465010698573	2.45404750561
Xe	9.03436616695	3.06665642063	-0.388176185281
Xe	-0.228467481005	5.63085501833	-0.177629002574
Xe	0.61058361878	9.26190312872	3.87956356413
Xe	2.61481533106	6.34832334342	2.96173889789
Xe	2.34964264816	8.75179368757	-0.301446547726
Xe	6.47153179729	5.87698460256	-0.687245620921
Xe	6.47477040105	8.53425233733	2.96760441956
Xe	9.33418600628	5.66250276406	2.65800364657
Xe	8.8275175062	9.03362677831	-0.0107294627765
Xe	-0.890580003283	0.0836343314251	5.72292050384
Xe	-0.201460578576	2.47497041593	9.21300355464
Xe	2.81197450709	0.0945245577088	9.97035385296
Xe	3.48180594008	3.44456049099	6.81571991453
Xe	6.61305127773	0.18488989493	5.55634044805
Xe	5.95377910879	2.41402817384	9.55733882296
Xe	8.91150556066	0.0564504689871	9.42388851846
Xe	9.14930053301	3.10384261656	5.5627094149
Xe	0.69877045305	6.42641628366	6.61517602846
Xe	-0.182171563529	10.0495551482	8.85732979835
Xe	3.1144281967	5.68574057487	9.84192417416
Xe	4.15820927944	8.9014051573	5.94196293291
Xe	5.99246063141	5.33430923743	4.81055291378
Xe	5.51623006705	9.34236245677	9.42601523689
Xe	8.91285816639	6.29756410932	8.56350392628
Xe	8.60284851149	9.43949109708	6.75786130196
32
Frame: 9; Minimum total energy: -5.90179e-12erg; Total energy at start (perturbed): 1.95038e-10erg; Total energy now: -2.8029e-12erg; Discrepancy from stable energy: 52.5077%
Xe	0.0762857657119	0.371630867371	0.438855304584
Xe	0.584244723791	3.08051017945	3.71063732413
Xe	2.90039359134	-0.0802064876915	4.11880857629
Xe	2.90345818862	3.12813470646	0.285082442357
Xe	5.84238532553	-0.640580891588	0.15343412614
Xe	5.85430007507	2.51599406074	2.46928762388
Xe	9.10152790619	0.219906040792	2.50628046183
Xe	9.08162251286	3.02018533447	-0.391131570628
Xe	-0.268509365102	5.69256036347	-0.238425263154
Xe	0.283124911109	9.39165718873	3.77250389863
Xe	2.81067778365	6.10310858124	2.81640493362
Xe	2.32257073071	8.9268399924	-0.178008100463
Xe	6.35897794295	5.94967091428	-0.471696503505
Xe	6.463341372	8.75725739025	2.7641393602
Xe	9.36930942457	5.74920252092	2.63589181228
Xe	9.04394303639	9.05881002744	-0.158600764714
Xe	-0.813027068572	-0.0837712614581	5.82414210948
Xe	-0.204526056614	2.63346653921	9.0570784504
Xe	2.81789607725	0.0263442605191	9.79081618605
Xe	3.23637368212	3.15985760088	6.64840135809
Xe	6.62692894436	0.0566879644745	5.84014590789
Xe	5.85473876763	2.50598211487	9.48559497127
Xe	8.90034218615	-0.126843596692	9.38918390935
Xe	9.14478760638	3.24337531266	5.73049851472
Xe	0.57670892536	6.35718981175	6.66282940154
Xe	-0.160618742172	9.85125750826	8.90192080899
Xe	2.99214016064	5.75118922269	9.57108272592
Xe	3.98161307147	8.79090994125	5.96577890912
Xe	6.04968221429	5.37109504841	4.9903282322
Xe	5.59951114264	9.23344440708	9.42247386069
Xe	9.02724400934	5.91049208218	8.65623768559
Xe	8.63634145034	9.44259278014	6.45068295149
32
Frame: 10; Minimum total energy: -5.90179e-12erg; Total energy at start (perturbed): 1.95038e-10erg; Total energy now: -2.8029e-12erg; Discrepancy from stable energy: 52.5077%
Xe	0.0762857657119	0.371630867371	0.438855304584
Xe	0.584244723791	3.08051017945	3.71063732413
Xe	2.90039359134	-0.0802064876915	4.11880857629
Xe	2.90345818862	3.12813470646	0.285082442357
Xe	5.84238532553	-0.640580891588	0.15343412614
Xe	5.85430007507	2.51599406074	2.46928762388
Xe	9.10152790619	0.219906040792	2.50628046183
Xe	9.08162251286	3.02018533447	-0.391131570628
Xe	-0.268509365102	5.69256036347	-0.238425263154
Xe	0.283124911109	9.39165718873	3.77250389863
Xe	2.81067778365	6.10310858124	2.81640493362
Xe	2.32257073071	8.9268399924	-0.178008100463
Xe	6.35897794295	5.94967091428	-0.471696503505
Xe	6.463341372	8.75725739025	2.7641393602
Xe	9.36930942457	5.74920252092	2.63589181228
Xe	9.04394303639	9.05881002744	-0.158600764714
Xe	-0.813027068572	-0.0837712614581	5.82414210948
Xe	-0.204526056614	2.63346653921	9.0570784504
Xe	2.81789607725	0.0263442605191	9.79081618605
Xe	3.23637368212	3.15985760088	6.64840135809
Xe	6.62692894436	0.0566879644745	5.84014590789
Xe	5.85473876763	2.50598211487	9.48559497127
Xe	8.90034218615	-0.126843596692	9.38918390935
Xe	9.14478760638	3.24337531266	5.73049851472
Xe	0.57670892536	6.35718981175	6.66282940153
Xe	-0.160618742172	9.85125750826	8.90192080899
Xe	2.99214016064	5.75118922269	9.57108272592
Xe	3.98161307147	8.79090994125	5.96577890912
Xe	6.04968221429	5.37109504841	4.9903282322
Xe	5.59951114264	9.23344440708	9.42247386069
Xe	9.02724400934	5.91049208218	8.65623768559
Xe	8.63634145034	9.44259278014	6.45068295149
32
Frame: 11; Minimum total energy: -5.90179e-12erg; Total energy at start (perturbed): 1.95038e-10erg; Total energy now: -3.52539e-12erg; Discrepancy from stable energy: 40.2657%
Xe	0.0717084498685	0.337314262746	0.423996944261
Xe	0.509717398066	3.07669636098	3.68471291066
Xe	2.93966275957	-0.0745490549546	4.08615013829
Xe	2.85986889922	3.10348081629	0.219718489879
Xe	5.82344227896	-0.616538891278	0.150861898686
Xe	5.89012658352	2.50571170177	2.49252143071
Xe	9.08059483043	0.186162719693	2.53298059009
Xe	9.07113252264	2.9967659728	-0.388455026164
Xe	-0.259687421207	5.71446730389	-0.26112806387
Xe	0.26748448324	9.24469411612	3.67491638663
Xe	2.81795326683	6.14989827152	2.81465062277
Xe	2.32883599574	8.93172063735	-0.156216168097
Xe	6.33122039528	5.94728650371	-0.44436653452
Xe	6.44100274598	8.7499553737	2.78522091692
Xe	9.36188670558	5.76843760564	2.64880854573
Xe	9.09073568213	9.04745201436	-0.184970468498
Xe	-0.840972346031	0.00911243100796	5.88132847486
Xe	-0.210632367818	2.64782959868	9.04088802521
Xe	2.81500603367	0.0156300887727	9.74941683369
Xe	3.21716114227	3.11787865098	6.61794599814
Xe	6.50398793786	0.165376808455	5.82323622621
Xe	5.87168624531	2.5235756677	9.47767263296
Xe	8.88772439048	-0.124568693349	9.3870327195
Xe	9.17399037061	3.19605097454	5.74076728666
Xe	0.522557001341	6.35448675847	6.61352547385
Xe	-0.163234108206	9.78860431305	8.91627640205
Xe	3.01337536069	5.77268395834	9.57277828158
Xe	3.94584615535	8.77729713507	5.94771011217
Xe	6.03703575924	5.4240451151	5.03853482417
Xe	5.62215626303	9.20216239701	9.40079986367
Xe	9.02831734134	5.92438051911	8.66790186962
Xe	8.70854749524	9.24403426206	6.44715211283
32
Frame: 12; Minimum total energy: -5.90179e-12erg; Total energy at start (perturbed): 1.95038e-10erg; Total energy now: -4.40715e-12erg; Discrepancy from stable energy: 25.3253%
Xe	0.0202022460553	0.178306385469	0.372173576139
Xe	0.287833363624	3.1028120579	3.53716963967
Xe	2.92522552349	-0.118627965335	3.9031292132
Xe	2.80118032048	3.01952351795	0.0936268768986
Xe	5.75501900533	-0.571375124056	0.114495655992
Xe	5.92403371558	2.57788393024	2.53275919095
Xe	9.03640885579	0.0249426186455	2.63388749055
Xe	9.05332796168	2.93257955261	-0.35107120462
Xe	-0.261970170107	5.79290393197	-0.336573766974
Xe	0.129931792405	9.07972415824	3.50122313726
Xe	2.84338927486	6.20717333124	2.77978779539
Xe	2.37106782773	8.9690210838	-0.0891370640446
Xe	6.24280097647	5.93641743107	-0.320129363564
Xe	6.38387308871	8.7592546003	2.8073828991
Xe	9.34065605917	5.83220789208	2.69982570719
Xe	9.23426985563	9.00213123865	-0.251148812391
Xe	-0.798400235377	-0.039060042655	5.94425351113
Xe	-0.232455777953	2.71834627178	8.99760535144
Xe	2.80909838568	-0.040933530458	9.56407330522
Xe	3.13334206226	2.99105022297	6.52098903318
Xe	6.39649249226	0.156073301032	5.90945219647
Xe	5.90545741882	2.60179946473	9.42685865361
Xe	8.8442810146	-0.172203596294	9.32005157934
Xe	9.17795936985	3.13451649443	5.77926872238
Xe	0.347614780281	6.30286139167	6.46985321227
Xe	-0.183073602987	9.5644857375	8.95523053256
Xe	3.05369024601	5.85800897343	9.47949240904
Xe	3.77565437861	8.74872241992	5.9081936103
Xe	6.04620480857	5.53660483886	5.23794649263
Xe	5.71698856917	9.101930111	9.3316731735
Xe	9.02862631135	5.90787249636	8.74658645216
Xe	8.73877745077	9.05495560952	6.31372898672
32
Frame: 13; Minimum total energy: -5.90179e-12erg; Total energy at start (perturbed): 1.95038e-10erg; Total energy now: -4.97135e-12erg; Discrepancy from stable energy: 15.7654%
Xe	-0.0459718444442	0.0391044004959	0.297993152248
Xe	0.208296767524	3.09903628562	3.36702290851
Xe	2.84402162232	-0.166827843386	3.65493071124
Xe	2.79905037813	2.97944728767	0.0531540984807
Xe	5.72083260691	-0.550853970136	0.0586348034442
Xe	5.91215879665	2.69719353757	2.58443415285
Xe	8.99022322228	-0.112344671337	2.69611249352
Xe	9.07857918746	2.88782289967	-0.26586899553
Xe	-0.284206518666	5.82049976406	-0.367687950632
Xe	-0.0642997674453	9.09766059716	3.37023876621
Xe	2.90217309203	6.03674461622	2.74549409991
Xe	2.46140761489	9.02926259243	-0.105407587965
Xe	6.1911184544	5.91858343883	-0.208431001289
Xe	6.34631419448	8.8178970472	2.74501366064
Xe	9.32853761021	5.86954438307	2.73175505339
Xe	9.24727551598	8.97055740229	-0.229094923154
Xe	-0.66627620975	-0.189857161999	5.96605830024
Xe	-0.255212057648	2.76011632813	8.99474695288
Xe	2.7986960643	-0.117343379596	9.37340722757
Xe	3.0500319219	2.94811946982	6.42274109998
Xe	6.31257650715	0.0634484034716	5.98059736024
Xe	5.87772465064	2.68073112409	9.33898609338
Xe	8.8519289708	-0.238999994274	9.24488477987
Xe	9.08092240134	3.1112941441	5.82243609731
Xe	0.232192432084	6.17437776058	6.38115546322
Xe	-0.202987323183	9.39222952782	8.96795505329
Xe	3.01906812097	5.89679306596	9.31017131079
Xe	3.56063476995	8.79309049864	5.96409883829
Xe	6.05731577499	5.52017039133	5.42844409971
Xe	5.80261944645	9.04874307553	9.27769265128
Xe	8.99279559705	5.85961314546	8.84837913582
Xe	8.76043705904	9.00460733483	6.15546939886
32
Frame: 14; Minimum total energy: -5.90179e-12erg; Total energy at start (perturbed): 1.95038e-10erg; Total energy now: -4.97135e-12erg; Discrepancy from stable energy: 15.7654%
Xe	-0.0459718444442	0.0391044004959	0.297993152248
Xe	0.208296767524	3.09903628562	3.36702290851
Xe	2.84402162232	-0.166827843386	3.65493071124
Xe	2.79905037813	2.97944728767	0.0531540984807
Xe	5.72083260691	-0.550853970136	0.0586348034442
Xe	5.91215879665	2.69719353757	2.58443415285
Xe	8.99022322228	-0.112344671337	2.69611249352
Xe	9.07857918746	2.88782289967	-0.26586899553
Xe	-0.284206518666	5.82049976406	-0.367687950632
Xe	-0.0642997674453	9.09766059716	3.37023876621
Xe	2.90217309203	6.03674461622	2.74549409991
Xe	2.46140761489	9.02926259243	-0.105407587965
Xe	6.1911184544	5.91858343883	-0.208431001289
Xe	6.34631419448	8.8178970472	2.74501366064
Xe	9.32853761021	5.86954438307	2.73175505339
Xe	9.24727551598	8.97055740229	-0.229094923154
Xe	-0.66627620975	-0.189857161999	5.96605830024
Xe	-0.255212057648	2.76011632813	8.99474695288
Xe	2.7986960643	-0.117343379596	9.37340722757
Xe	3.0500319219	2.94811946982	6.42274109998
Xe	6.31257650715	0.0634484034716	5.98059736024
Xe	5.87772465064	2.68073112409	9.33898609338
Xe	8.8519289708	-0.238999994274	9.24488477987
Xe	9.08092240134	3.1112941441	5.82243609731
Xe	0.232192432084	6.17437776058	6.38115546322
Xe	-0.202987323183	9.39222952782	8.96795505329
Xe	3.01906812097	5.89679306596	9.31017131079
Xe	3.56063476995	8.79309049864	5.96409883829
Xe	6.05731577499	5.52017039133	5.42844409971
Xe	5.80261944645	9.04874307553	9.27769265128
Xe	8.99279559705	5.85961314546	8.84837913582
Xe	8.76043705904	9.00460733483	6.15546939886
32
Frame: 15; Minimum total energy: -5.90179e-12erg; Total energy at start (perturbed): 1.95038e-10erg; Total energy now: -5.11212e-12erg; Discrepancy from stable energy: 13.3803%
Xe	-0.0574597347374	0.022795283935	0.273202795943
Xe	0.167993837802	3.07531933037	3.34553632935
Xe	2.85017050073	-0.172498280451	3.60615755291
Xe	2.79156200927	2.95572967415	0.0181132592835
Xe	5.71746301389	-0.519841042369	0.0425703593017
Xe	5.91715922763	2.69096810427	2.59367382002
Xe	8.97879192991	-0.124685551604	2.71237675962
Xe	9.070657822	2.8686482382	-0.257405275497
Xe	-0.272067314502	5.82746885273	-0.369783865652
Xe	-0.0805240258513	9.06202510279	3.32956626917
Xe	2.90993729389	6.04905488021	2.75219991092
Xe	2.48068308199	9.01377021023	-0.0967195311897
Xe	6.17077016375	5.91151916007	-0.208129356472
Xe	6.31333190545	8.80856392023	2.76465921083
Xe	9.31813166856	5.87350055632	2.7452409374
Xe	9.24211368588	8.96808016842	-0.228968979964
Xe	-0.65050229351	-0.165227122703	5.9734756293
Xe	-0.259719001153	2.75483674304	8.99252642868
Xe	2.79719236329	-0.127348449482	9.33776302707
Xe	3.02849448304	2.92642366352	6.3882019773
Xe	6.27449799787	0.0454079321156	5.9771052446
Xe	5.8870409706	2.69025669827	9.3289646588
Xe	8.85444694472	-0.236624809572	9.23944029757
Xe	9.10732534597	3.06006738431	5.82632308684
Xe	0.196612109565	6.15656341421	6.34484792178
Xe	-0.206049427401	9.34888895816	8.971289184
Xe	3.02092047269	5.90272885535	9.3013779201
Xe	3.52444778757	8.79437909203	5.9583233469
Xe	6.027495309	5.56952074461	5.46545971497
Xe	5.81950901937	9.03183723915	9.26414255474
Xe	8.98002873302	5.86617879474	8.85717887941
Xe	8.76746945834	8.97898170304	6.13680857463
32
Frame: 16; Minimum total energy: -5.90179e-12erg; Total energy at start (perturbed): 1.95038e-10erg; Total energy now: -4.90474e-12erg; Discrepancy from stable energy: 16.8941%
Xe	-0.0334900031879	0.0574952071157	0.317087061951
Xe	0.223384607013	3.10867525277	3.39870478097
Xe	2.84762662616	-0.156206858402	3.69731221907
Xe	2.79958679855	2.98904770203	0.0636786599542
Xe	5.72088749619	-0.558219455783	0.0700339985238
Xe	5.91529427526	2.68403581512	2.56701044714
Xe	8.99356707691	-0.0972498907808	2.68608433782
Xe	9.08079398395	2.89362180201	-0.273788809906
Xe	-0.284842308004	5.82096685331	-0.370776368047
Xe	-0.0491819413103	9.10199253806	3.3896041001
Xe	2.90730835147	6.05358027666	2.7459987021
Xe	2.44308357832	9.03082429313	-0.103932945642
Xe	6.20351395119	5.92386933262	-0.213087963927
Xe	6.37055732976	8.81036136147	2.74857085421
Xe	9.34141205111	5.87217319486	2.72211439251
Xe	9.25806994955	8.97295232914	-0.234050695936
Xe	-0.691566512633	-0.168200950183	5.96692057111
Xe	-0.252728784643	2.75878960424	8.99204776814
Xe	2.79975052195	-0.102063572788	9.40087048572
Xe	3.06105685255	2.95682415474	6.44326806331
Xe	6.33566370412	0.0812865477154	5.97788737163
Xe	5.87777475834	2.67424749073	9.35703127225
Xe	8.84901462854	-0.23448400721	9.25520405824
Xe	9.11088438435	3.10848662272	5.81809820221
Xe	0.253851237296	6.19253447675	6.40225930948
Xe	-0.201730779539	9.41793906976	8.97068792856
Xe	3.02627367169	5.8975307499	9.33193067751
Xe	3.59848567639	8.78230914819	5.95977948915
Xe	6.04155983573	5.52829875543	5.39805808023
Xe	5.79296354404	9.05629273205	9.2881190212
Xe	9.00054005867	5.86362431287	8.84468999886
Xe	8.75052985025	9.0117076176	6.17037341648
32
Frame: 17; Minimum total energy: -5.90179e-12erg; Total energy at start (perturbed): 1.95038e-10erg; Total energy now: -4.90474e-12erg; Discrepancy from stable energy: 16.8941%
Xe	-0.0334900031879	0.0574952071157	0.317087061951
Xe	0.223384607013	3.10867525277	3.39870478097
Xe	2.84762662616	-0.156206858402	3.69731221907
Xe	2.79958679855	2.98904770203	0.0636786599542
Xe	5.72088749619	-0.558219455783	0.0700339985238
Xe	5.91529427526	2.68403581512	2.56701044714
Xe	8.99356707691	-0.0972498907809	2.68608433782
Xe	9.08079398395	2.89362180201	-0.273788809906
Xe	-0.284842308004	5.82096685331	-0.370776368047
Xe	-0.0491819413103	9.10199253806	3.3896041001
Xe	2.90730835147	6.05358027666	2.7459987021
Xe	2.44308357832	9.03082429313	-0.103932945642
Xe	6.20351395119	5.92386933262	-0.213087963927
Xe	6.37055732976	8.81036136147	2.74857085421
Xe	9.34141205111	5.87217319486	2.72211439251
Xe	9.25806994955	8.97295232914	-0.234050695936
Xe	-0.691566512633	-0.168200950183	5.96692057111
Xe	-0.252728784643	2.75878960424	8.99204776814
Xe	2.79975052195	-0.102063572788	9.40087048572
Xe	3.06105685255	2.95682415474	6.44326806331
Xe	6.33566370412	0.0812865477154	5.97788737163
Xe	5.87777475834	2.67424749073	9.35703127225
Xe	8.84901462854	-0.23448400721	9.25520405824
Xe	9.11088438435	3.10848662272	5.81809820221
Xe	0.253851237296	6.19253447675	6.40225930948