32
Frame: 0; Minimum total energy: -5.90179e-12erg; Total energy at start (perturbed): 6.39401e-10erg; Total energy now: 6.39401e-10erg; Discrepancy from stable energy: 10934%
Xe	-0.0694223212372	0.569762971409	-0.738203699955
Xe	-0.450005824455	2.85293881427	2.17227134828
Xe	3.46971427682	-0.489459316437	2.35298214701
Xe	3.87975695418	2.95043344446	0.990248070243
Xe	5.15904497956	1.19531107876	0.153231111083
Xe	6.04826800015	2.83751258581	2.64528477804
Xe	9.92776708863	-0.707108846777	2.85572836587
Xe	9.15443891755	2.14005569969	0.922192405884
Xe	-0.129567037912	6.83461021754	0.276729985606
Xe	1.0264276689	8.40745104202	3.59209914112
Xe	3.5457540095	6.96273592561	2.52680105573
Xe	2.99009246335	9.10979016128	0.35886179176
Xe	5.62236357208	5.91747377719	-1.11869726837
Xe	5.10165320222	10.3113143977	2.11578576788
Xe	8.91952438538	6.88578078525	2.95201703262
Xe	8.94282581032	8.32868381613	-0.960296925494
Xe	-0.721660964265	-0.934972704859	5.71774736699
Xe	-1.08857398039	2.57106208088	9.03280254904
Xe	4.2014919937	-0.0698219837659	10.364964575
Xe	2.10043004026	2.24223904056	5.58562401695
Xe	5.90513224563	-0.531389015988	6.32062388801
Xe	6.43439547434	2.9568519973	9.61980532782
Xe	9.10059762215	0.34036347538	10.1551599712
Xe	8.14268997435	2.84233823913	6.34411448025
Xe	-0.133430034011	6.25250719294	6.60930954073
Xe	-0.52836461446	8.86809627852	9.7724492385
Xe	3.95513916824	7.16481293583	10.1691600532
Xe	3.34215489731	10.0446951483	6.62870603867
Xe	6.48418208942	5.37806122221	5.5809421754
Xe	6.92143505663	8.30455934301	10.3678041145
Xe	8.9763992047	7.19076943899	9.33101865397
Xe	8.70474069918	9.47719818548	6.07727446631
32
Frame: 1; Minimum total energy: -5.90179e-12erg; Total energy at start (perturbed): 6.39401e-10erg; Total energy now: 3.16781e-10erg; Discrepancy from stable energy: 5467.53%
Xe	-0.0690333238766	0.569497517945	-0.737940642356
Xe	-0.44887273647	2.8533347674	2.17290008186
Xe	3.38826675009	-0.43229252319	2.36496410606
Xe	3.84704455371	2.98189793879	1.0027284222
Xe	5.18669455593	1.16045326121	0.142817979017
Xe	6.05244952016	2.83782179327	2.64916502748
Xe	9.92756905918	-0.707223930433	2.85536907719
Xe	9.15301153469	2.13992107301	0.921568199785
Xe	-0.129531995401	6.83439890039	0.276861602928
Xe	1.02547254936	8.40792403685	3.592465721
Xe	3.54667562097	6.96138575212	2.52709730176
Xe	2.98853114375	9.10975843893	0.357167662735
Xe	5.65614192788	5.88195187141	-1.09544423331
Xe	5.16575841766	10.2406751578	2.10749647853
Xe	8.91953817131	6.88577490294	2.95199016324
Xe	9.00703828871	8.36016271439	-0.879495869728
Xe	-0.721264814714	-0.934845246646	5.71807550796
Xe	-1.08834622866	2.57159452405	9.03234328804
Xe	4.19715549972	-0.0757187838746	10.3548386004
Xe	2.10043864273	2.24224425302	5.58562808408
Xe	5.90584432517	-0.530766474479	6.32053018923
Xe	6.43444943553	2.95675733635	9.6195995713
Xe	9.09995519445	0.339805111259	10.1550637986
Xe	8.14318466123	2.84152542097	6.34425048074
Xe	-0.133436777057	6.2524773439	6.60931779054
Xe	-0.52754008792	8.8685760413	9.77203820292
Xe	3.90946901037	7.19190732804	10.1443185303
Xe	3.34113618967	10.0440519522	6.62882780836
Xe	6.48364766318	5.37873701458	5.5807683735
Xe	6.82168072306	8.31335017212	10.3354738234
Xe	8.98732472029	7.15052709333	9.26156534688
Xe	8.70456333106	9.47696709595	6.07730440575
32
Frame: 2; Minimum total energy: -5.90179e-12erg; Total energy at start (perturbed): 6.39401e-10erg; Total energy now: 1.56963e-10erg; Discrepancy from stable energy: 2759.58%
Xe	-0.0678529731446	0.568691220097	-0.737142399092
Xe	-0.445462882987	2.85452788447	2.17479488371
Xe	3.30673644528	-0.374740190345	2.37779157228
Xe	3.78220478775	3.04037357515	1.0223613907
Xe	5.24334825124	1.10263781232	0.13304849219
Xe	6.06373477137	2.83852892949	2.65954978653
Xe	9.92696745092	-0.70757476898	2.85427757547
Xe	9.14872058065	2.13952363528	0.919687502802
Xe	-0.129373255527	6.83372131688	0.277279720976
Xe	1.02259075246	8.40935183378	3.59357062117
Xe	3.54943539877	6.95728350366	2.52799553871
Xe	2.983973811	9.11007898696	0.352441419082
Xe	5.70946411822	5.81907161425	-1.0555285018
Xe	5.23279527355	10.1715008908	2.1007472874
Xe	8.91957937974	6.8857526748	2.95191692074
Xe	9.07202660025	8.39822173548	-0.786364862643
Xe	-0.720060534705	-0.934456980913	5.71907266126
Xe	-1.08765605291	2.57320964791	9.03095010709
Xe	4.18328007119	-0.0934559223759	10.3235822815
Xe	2.10046392805	2.2422621715	5.58564294182
Xe	5.90799174874	-0.528884436569	6.32024623445
Xe	6.43462484885	2.95638255349	9.61892077716
Xe	9.09800767724	0.338109629489	10.1547676905
Xe	8.14468275762	2.83906704326	6.344660061
Xe	-0.133452491124	6.25238491078	6.60933862765
Xe	-0.525044142272	8.86998963976	9.7706494286
Xe	3.83386186645	7.2352940132	10.1030804552
Xe	3.33805918357	10.0421087986	6.62919446433
Xe	6.4820300607	5.38078291815	5.58024446273
Xe	6.72048869291	8.33134311906	10.3028804427
Xe	9.00206425686	7.09950148487	9.1757262588
Xe	8.70402344712	9.47627016302	6.07738635127
32
Frame: 3; Minimum total energy: -5.90179e-12erg; Total energy at start (perturbed): 6.39401e-10erg; Total energy now: 7.752e-11erg; Discrepancy from stable energy: 1413.5%
Xe	-0.0642383746188	0.566216813146	-0.734698984508
Xe	-0.435283100719	2.85810514696	2.18047563199
Xe	3.21610041619	-0.311633339572	2.39397226851
Xe	3.68218998517	3.11829875682	1.0371486119
Xe	5.33840471686	1.04803349558	0.152881649556
Xe	6.09026058039	2.83997641818	2.68402069581
Xe	9.92512045971	-0.708661539728	2.85092730279
Xe	9.13595135414	2.13840700259	0.914052750429
Xe	-0.128673950016	6.83147770548	0.278631010196
Xe	1.01392189072	8.41365624659	3.59688467886
Xe	3.55767046386	6.94487435723	2.53070646699
Xe	2.97094663296	9.11238153762	0.3397001446
Xe	5.76644984234	5.73054237561	-1.00228421791
Xe	5.31275344103	10.0986154485	2.0974795958
Xe	8.91970334069	6.88566226705	2.95172867902
Xe	9.13820891956	8.4400290411	-0.681713102837
Xe	-0.716355931196	-0.933255262552	5.72213876189
Xe	-1.08555207147	2.57814662077	9.02669085177
Xe	4.14299206807	-0.139469699498	10.2385529674
Xe	2.10053940233	2.24232625412	5.58570007971
Xe	5.91444447574	-0.523186758071	6.31938436979
Xe	6.43521853566	2.95467634829	9.61650285335
Xe	9.0920655599	0.332907912423	10.1538237066
Xe	8.14923966034	2.83161634214	6.34588362755
Xe	-0.13347606903	6.25209042048	6.60938192378
Xe	-0.517639597306	8.8741049944	9.76598719644
Xe	3.74020190236	7.2819562971	10.0516653749
Xe	3.32877082029	10.0362392364	6.63029071267
Xe	6.47711758416	5.3869989103	5.57867355645
Xe	6.6166483021	8.37068110463	10.2653515821
Xe	9.0215925834	7.03826247956	9.07809859298
Xe	8.70236160619	9.47414351667	6.07760156642
32
Frame: 4; Minimum total energy: -5.90179e-12erg; Total energy at start (perturbed): 6.39401e-10erg; Total energy now: 3.87135e-11erg; Discrepancy from stable energy: 755.962%
Xe	-0.0536813269749	0.558949683584	-0.727578171797
Xe	-0.407701992423	2.86792697814	2.19606233184
Xe	3.11851382045	-0.247261213008	2.41557235753
Xe	3.54708054879	3.20591912546	1.03575747111
Xe	5.46476021975	1.00125076139	0.19738487133
Xe	6.13803311518	2.84502893222	2.73212598451
Xe	9.9196928748	-0.711940819262	2.84109060941
Xe	9.10173587078	2.13598778691	0.898623164489
Xe	-0.125768118553	6.82410921379	0.282843397247
Xe	0.989928389643	8.42565309843	3.60597601992
Xe	3.58025736128	6.91039560867	2.53819525781
Xe	2.93753257011	9.12302122176	0.309961325895
Xe	5.81543658812	5.61880990466	-0.934094508218
Xe	5.41006774849	10.0293651917	2.10392396248
Xe	8.92006167372	6.88528166112	2.95133097103
Xe	9.19573378405	8.48242196295	-0.566572266919
Xe	-0.705401987995	-0.929634774373	5.73120008479
Xe	-1.07949476094	2.59246955349	9.01432824053
Xe	4.07525676274	-0.206558917921	10.1071135827
Xe	2.1007614281	2.24255997597	5.58592939011
Xe	5.93223053083	-0.507104636478	6.31693899329
Xe	6.43715284095	2.94673634328	9.60765752451
Xe	9.07491506694	0.317629185766	10.1507480029
Xe	8.16227639347	2.81053828009	6.34917371138
Xe	-0.133422230294	6.25115323703	6.60941169588
Xe	-0.497302884811	8.88537118595	9.75136460955
Xe	3.62725059483	7.31428525399	9.98850804557
Xe	3.30279585809	10.019772125	6.63326221549
Xe	6.46313556975	5.40470668157	5.57437883792
Xe	6.52166172711	8.44743507276	10.2194837672
Xe	9.04423736385	6.96641951383	8.97417846762
Xe	8.69746202369	9.46785761248	6.07809963259
32
Frame: 5; Minimum total energy: -5.90179e-12erg; Total energy at start (perturbed): 6.39401e-10erg; Total energy now: 1.72199e-11erg; Discrepancy from stable energy: 391.773%
Xe	-0.022683911048	0.537272281271	-0.706866643671
Xe	-0.341099575651	2.89268503405	2.23530751803
Xe	2.9997773012	-0.177970653973	2.45025347471
Xe	3.37409588405	3.30259187645	1.01639893612
Xe	5.60576609649	0.928406469782	0.215334116415
Xe	6.20541814517	2.86856886777	2.82539994544
Xe	9.90353637109	-0.722521921687	2.81189785226
Xe	9.02236645707	2.13501859011	0.859973871836
Xe	-0.113803797833	6.79825455865	0.296103308194
Xe	0.928864853363	8.45676978659	3.62842910893
Xe	3.63715070591	6.82242702252	2.55714401146
Xe	2.85924949454	9.1631322811	0.25383598208
Xe	5.85854398542	5.50326811398	-0.831389871869
Xe	5.54759059956	9.96158149192	2.12989027918
Xe	8.92115705085	6.88343725336	2.95088860701
Xe	9.23172846031	8.53130811145	-0.418868403106
Xe	-0.672206957291	-0.918032685695	5.75868248126
Xe	-1.06240989907	2.63367679975	8.97875147474
Xe	3.99377075132	-0.275148458632	9.9633536768
Xe	2.10150527217	2.24353127568	5.58699501237
Xe	5.97644059931	-0.463833448006	6.31034140025
Xe	6.44383495302	2.90933658154	9.57149737954
Xe	9.02637030796	0.27185414542	10.1390020938
Xe	8.1986043447	2.75392789695	6.35638556908
Xe	-0.132582780026	6.24780373998	6.60900247994
Xe	-0.443841277991	8.91620867408	9.70745286346
Xe	3.45737056469	7.30299574129	9.88273872856
Xe	3.2349123739	9.976212079	6.64026654116
Xe	6.42483690916	5.45328383511	5.56412279052
Xe	6.43726208486	8.58356170349	10.1584835211
Xe	9.06712100103	6.86829896007	8.85491551814
Xe	8.68284781035	9.44822840933	6.07902256567
32
Frame: 6; Minimum total energy: -5.90179e-12erg; Total energy at start (perturbed): 6.39401e-10erg; Total energy now: 5.95713e-12erg; Discrepancy from stable energy: 200.938%
Xe	0.0432562674635	0.488629207674	-0.664779071205
Xe	-0.250236599554	2.93300342691	2.300447584
Xe	2.87977386239	-0.122491595732	2.50054834448
Xe	3.21806295258	3.37144593989	0.982421703161
Xe	5.71839577096	0.835450178007	0.200185603915
Xe	6.24479041043	2.92383126547	2.96650222057
Xe	9.8684180555	-0.752285481024	2.74939301621
Xe	8.93521775957	2.1624667832	0.79616071709
Xe	-0.0776335433896	6.72332815604	0.325356110937
Xe	0.834173377625	8.50706771169	3.65824821835
Xe	3.72322146157	6.68591759093	2.58903492676
Xe	2.74358703277	9.25484282507	0.211800803772
Xe	5.88485109655	5.48494417476	-0.679654401685
Xe	5.70392867572	9.90610553535	2.17575762335
Xe	8.92403616789	6.87403789004	2.95464123394
Xe	9.21511060013	8.59212297889	-0.262994683244
Xe	-0.596557897899	-0.886422275029	5.82266900947
Xe	-1.02902395456	2.71675295055	8.90779388641
Xe	3.89529985367	-0.338543787607	9.81077767065
Xe	2.10414247262	2.2476032812	5.59204519063
Xe	6.0331520405	-0.38589603097	6.29862325774
Xe	6.45501983656	2.80216687266	9.46003759386
Xe	8.9354621476	0.164472040542	10.0962289408
Xe	8.27090754876	2.65819946485	6.35568557514
Xe	-0.126549664514	6.23626285278	6.60521333349
Xe	-0.352277056836	8.9784155737	9.61983630802
Xe	3.25502323708	7.1990364269	9.7040766345
Xe	3.12364436311	9.9011756503	6.64684139622
Xe	6.35447480998	5.54355758365	5.55629640177
Xe	6.36657618335	8.75689624044	10.0861192237
Xe	9.07323968185	6.74680055132	8.75368624701
Xe	8.65175748695	9.39725752876	6.07814815222
32
Frame: 7; Minimum total energy: -5.90179e-12erg; Total energy at start (perturbed): 6.39401e-10erg; Total energy now: 9.0884e-15erg; Discrepancy from stable energy: 100.154%
Xe	0.157440459252	0.390011091597	-0.604500615331
Xe	-0.186614242014	2.99835571714	2.43266539901
Xe	2.72909396697	-0.0696494821774	2.6065353317
Xe	3.04284989637	3.38953753346	0.876786424586
Xe	5.72574481117	0.657747513162	0.177806824721
Xe	6.19535289491	2.98730276366	3.16827293793
Xe	9.80910588082	-0.842054796101	2.65306080687
Xe	8.96137272261	2.32685014417	0.676127349649
Xe	-0.00450474035844	6.52252198085	0.360967024482
Xe	0.708283694649	8.57194751745	3.66387464925
Xe	3.82305170914	6.5342923999	2.6590325928
Xe	2.60831515696	9.36480513676	0.150958035272
Xe	5.9485682636	5.50957905648	-0.483460727716
Xe	5.91608570667	9.81833636533	2.26444330509
Xe	8.93364449021	6.81373780666	2.99604053942
Xe	9.17593167621	8.72395754945	-0.116117113465
Xe	-0.465242982504	-0.795161235655	5.95774309881
Xe	-0.967355998666	2.85026682239	8.80652333353
Xe	3.7199078085	-0.392553208211	9.59108503926
Xe	2.11838276138	2.26982120818	5.62152787532
Xe	6.03066984972	-0.266621984588	6.27541444176
Xe	6.3794882213	2.73916756006	9.29539268679
Xe	8.84039028343	-0.101114209796	9.95438967385
Xe	8.44210137657	2.55258985665	6.25812212842
Xe	-0.0900142278851	6.18898516332	6.5802566121
Xe	-0.239678056916	9.09707488945	9.48163099336
Xe	3.01882251856	6.98847783736	9.44350089606
Xe	2.97416802528	9.77364184248	6.62158322752
Xe	6.23977443523	5.70829743317	5.6132992732
Xe	6.20824797558	9.00245220634	9.93692819346
Xe	9.03340211322	6.54058900375	8.68982266785
Xe	8.60949546949	9.26936454824	6.06013267168
32
Frame: 8; Minimum total energy: -5.90179e-12erg; Total energy at start (perturbed): 6.39401e-10erg; Total energy now: -3.13482e-12erg; Discrepancy from stable energy: 46.8837%
Xe	0.203888924699	0.307413343599	-0.588712953114
Xe	-0.397728836725	3.05318158414	2.79475874203
Xe	2.63636268951	-0.116612782085	2.78625281393
Xe	3.0242458973	3.26672329988	0.473038162382
Xe	5.65630146104	0.503924351581	0.173700291511
Xe	6.04360469765	2.83004378222	3.09214630561
Xe	9.77762837062	-0.890414534725	2.65265730428
Xe	8.93270979916	2.59806637756	0.408639506918
Xe	0.00216647954227	6.24529837329	0.293926601875
Xe	0.556177155395	8.60366526761	3.51132845344
Xe	3.7938387941	6.55589716744	2.8003484463
Xe	2.59897724665	9.31760781281	0.037072334696
Xe	6.11647699944	5.61667768402	-0.404525973074
Xe	6.05231419039	9.63734339314	2.44153314631
Xe	8.97931200004	6.55927632854	3.09878914512
Xe	9.16590193732	8.84835160855	-0.275166691495
Xe	-0.508538125182	-0.611870636441	6.10876305062
Xe	-0.848859211211	2.92034884327	8.83112298711
Xe	3.40056405727	-0.211337878806	9.40080559732
Xe	2.19672996547	2.38693190074	5.77004583477
Xe	5.84048989986	-0.256995374531	6.2021115124
Xe	6.14560356473	2.81657612892	9.18382735574
Xe	8.87018991511	-0.36047583292	9.75847721593
Xe	8.80117226371	2.59766511969	5.97929505664
Xe	0.0122747534916	6.06696986733	6.48617214487
Xe	-0.286509881922	9.23083641742	9.35533031469
Xe	2.92824309275	6.64473170242	9.29602331817
Xe	2.91949421404	9.51336180514	6.40800687349
Xe	6.12357789382	5.95690066551	5.94199797952
Xe	6.11025701551	9.06299209742	9.77048330274
Xe	8.8890019541	6.28157738364	8.82414292254
Xe	8.60993132039	9.17502528926	6.0159813143
32
Frame: 9; Minimum total energy: -5.90179e-12erg; Total energy at start (perturbed): 6.39401e-10erg; Total energy now: -4.18551e-12erg; Discrepancy from stable energy: 29.0807%
Xe	0.119235430763	0.309102771141	-0.50304790581
Xe	-0.366151425179	3.0495231463	2.89162476318
Xe	2.61344363624	-0.150467506666	2.83364517967
Xe	2.83282143136	3.31550183666	0.374283883463
Xe	5.71690407878	0.244338702072	0.0107889350501
Xe	5.98868345436	2.93399188246	3.26321012662
Xe	9.7559371285	-0.798647677087	2.6429864273
Xe	8.93940687489	2.66684837953	0.244575177166
Xe	-0.0341850779528	6.15181079456	0.204771813847
Xe	0.355189596379	8.63769650471	3.39835147112
Xe	3.70068201065	6.37867481176	2.81344396271
Xe	2.65328574381	9.27605907939	-0.0188164782196
Xe	6.16709889216	5.68591509105	-0.321508067076
Xe	6.09600153167	9.60766435683	2.51458721161
Xe	9.00675262369	6.43446585086	3.02404618248
Xe	9.18722188445	8.67208865374	-0.106125276595
Xe	-0.520699204921	-0.532609112188	6.13861727085
Xe	-0.777374461946	2.91153463761	8.9060815158
Xe	3.26378991786	-0.156078369014	9.27951439443
Xe	2.28645242227	2.47175147934	5.87892316537
Xe	5.8802788701	-0.164559790197	6.13724419051
Xe	6.13090950601	2.8040023084	9.04897688692
Xe	8.84906064184	-0.215089448242	9.58017353227
Xe	8.80238994079	2.60459913576	5.89852343328
Xe	-0.00867457933858	6.03107947673	6.4233490608
Xe	-0.238612324961	9.180532389	9.23944720232
Xe	2.91884390416	6.48852698814	9.27589857786
Xe	2.92586121703	9.37246117511	6.39021685483
Xe	6.02589304825	5.91777055991	5.99633678543
Xe	5.90909253054	9.07855259776	9.62335724015
Xe	8.92952370289	6.17220734054	8.85036626699
Xe	8.62626831626	9.17315696419	6.05776726254
32
Frame: 10; Minimum total energy: -5.90179e-12erg; Total energy at start (perturbed): 6.39401e-10erg; Total energy now: -3.57349e-12erg; Discrepancy from stable energy: 39.4507%
Xe	0.152913515107	0.349271627008	-0.540849072762
Xe	-0.346735225568	3.05692122139	2.85966964582
Xe	2.60878952143	-0.149099057656	2.81321490903
Xe	2.81898522633	3.36441390839	0.436981291559
Xe	5.71155804193	0.23076636455	0.0152783636173
Xe	6.04799307787	2.96115327628	3.33933414686
Xe	9.78636995559	-0.859065303722	2.64577240241
Xe	8.94258232874	2.63281214139	0.271366584419
Xe	-0.0203278394998	6.19924546793	0.255793260591
Xe	0.405349338432	8.63058086925	3.43340049109
Xe	3.76872047018	6.39301441478	2.79772608192
Xe	2.63894963511	9.2955570469	-0.00639425638253
Xe	6.1680109051	5.67788021665	-0.335041924192
Xe	6.10848090169	9.67387519442	2.45194904917
Xe	9.01712947226	6.5282798713	2.98313692483
Xe	9.219260763	8.62960795083	-0.0181229389995
Xe	-0.534207572526	-0.574365001748	6.13673568762
Xe	-0.811949238416	2.90516499125	8.89975599051
Xe	3.35546397136	-0.19640930817	9.33733190256
Xe	2.23554601224	2.43759790642	5.83631641919
Xe	5.90046407562	-0.1600229131	6.16886278299
Xe	6.16214622501	2.7723942339	9.06814671241
Xe	8.85011301781	-0.17272302082	9.63178966409
Xe	8.7400288512	2.58905803055	5.89755107712
Xe	0.00392867580578	6.04950728487	6.46985248725
Xe	-0.223303347384	9.19839703846	9.24771411427
Xe	2.93527790635	6.59373572557	9.28285566918
Xe	2.91454329101	9.42518694038	6.43744651062
Xe	6.05545044455	5.90783182975	5.95589543482
Xe	5.88000419074	9.07562972227	9.66269730428
Xe	8.93039243876	6.20349920292	8.83419069454
Xe	8.61935498378	9.19847182638	6.05098783184
32
Frame: 11; Minimum total energy: -5.90179e-12erg; Total energy at start (perturbed): 6.39401e-10erg; Total energy now: -4.17113e-12erg; Discrepancy from stable energy: 29.3244%
Xe	0.132152408186	0.319219589539	-0.510739192871
Xe	-0.37316330393	3.0516549457	2.88612257572
Xe	2.61227892241	-0.149492175283	2.82768799651
Xe	2.83782065978	3.32287549508	0.386799768344
Xe	5.72302438652	0.271289555564	0.0142224946587
Xe	5.97288339673	2.93424651188	3.24062052505
Xe	9.77198578898	-0.804893730896	2.64520234126
Xe	8.93671803857	2.66091164676	0.257505109541
Xe	-0.0211166181065	6.15642063672	0.215103656588
Xe	0.374572348352	8.63259272979	3.41148858617
Xe	3.72034946079	6.39437634014	2.8093008212
Xe	2.64687829591	9.28036379128	-0.0100613235846
Xe	6.17258065393	5.67913685488	-0.329180577265
Xe	6.0969666024	9.60310403957	2.51666428356
Xe	9.00520698286	6.42177801103	3.06241113234
Xe	9.19098274854	8.69212475072	-0.162804228114
Xe	-0.526002480012	-0.53701320321	6.13906501017
Xe	-0.790811185847	2.91553308463	8.89601130985
Xe	3.26576370448	-0.156094810422	9.27736486752
Xe	2.27325360927	2.46167856635	5.87400373527
Xe	5.87714705304	-0.169846116901	6.14435314639
Xe	6.13650352276	2.80443168192	9.05581596094
Xe	8.85106156544	-0.221835215527	9.59356312017
Xe	8.82481385199	2.59839184427	5.92218385771
Xe	-0.00286762085578	6.03495328257	6.43624053406
Xe	-0.243829958893	9.18798544933	9.24970183046
Xe	2.91256547178	6.49880727772	9.27803045835
Xe	2.92456968115	9.38943477019	6.39429043576
Xe	6.03823412848	5.92517141232	5.99858343506
Xe	5.93221795768	9.07707212018	9.64043538052
Xe	8.92716652917	6.1842578698	8.84930372439
Xe	8.61888977635	9.17450063727	6.05807005515
32
Frame: 12; Minimum total energy: -5.90179e-12erg; Total energy at start (perturbed): 6.39401e-10erg; Total energy now: -4.98301e-12erg; Discrepancy from stable energy: 15.5679%
Xe	0.016791142386	0.200502898602	-0.391263444407
Xe	-0.427193432912	3.02690585296	2.99355527045
Xe	2.62884105214	-0.151492662595	2.89532954813
Xe	2.87406567686	3.17019325356	0.186478287116
Xe	5.71979599927	0.269624603269	0.00784347875302
Xe	5.83885628335	2.85199970387	3.07691477688
Xe	9.67007802531	-0.634256883685	2.61685692676
Xe	8.93561656336	2.7726914312	0.164186718751
Xe	-0.0880333702084	6.01998222584	0.0574983848849
Xe	0.201849470429	8.65306165332	3.29475109592
Xe	3.50181659414	6.3339738063	2.86216537177
Xe	2.70273331648	9.22101044073	-0.0645293590819
Xe	6.17271852544	5.70868738635	-0.279254886755
Xe	6.07875939968	9.42962117092	2.68779530291
Xe	8.98948054859	6.18899068605	3.09932752472
Xe	9.09135903516	8.76600470406	-0.281549070179
Xe	-0.4829784589	-0.410292365023	6.15128674559
Xe	-0.668232648567	2.93059066008	8.94285340267
Xe	2.9954288878	-0.0319672437758	9.11410193984
Xe	2.43520234576	2.57226965806	6.00943304874
Xe	5.82772657803	-0.160897375075	6.03778649791
Xe	6.04010672016	2.90034143503	8.98201320496
Xe	8.84913334317	-0.335395539749	9.4205200078
Xe	8.9468135047	2.64760654587	5.86260867949
Xe	-0.0450052032478	5.97823592201	6.28517352708
Xe	-0.271050395122	9.13286879842	9.20051969124
Xe	2.87728596478	6.18080725259	9.25995331738
Xe	2.95963952392	9.2084674368	6.25048575648
Xe	5.93013980124	5.9390156932	6.11976898651
Xe	5.9728690058	9.09361478648	9.50420706454
Xe	8.93167473167	6.06948927063	8.89038913946
Xe	8.6458267467	9.10332843767	6.08217688292
32
Frame: 13; Minimum total energy: -5.90179e-12erg; Total energy at start (perturbed): 6.39401e-10erg; Total energy now: -5.21241e-12erg; Discrepancy from stable energy: 11.6809%
Xe	-0.0177117355166	0.158313873988	-0.37749903764
Xe	-0.380355404624	3.01642583572	2.9912824585
Xe	2.62654210153	-0.160123461779	2.91551514058
Xe	2.83451524573	3.154935247	0.132691619578
Xe	5.72635212576	0.171033413792	-0.0444367773769
Xe	5.84334749315	2.86830506554	3.10722522852
Xe	9.59352619546	-0.609355312247	2.63798604535
Xe	8.94835384581	2.78479438421	0.115924801609
Xe	-0.124418480964	5.99221057462	0.0224443540467
Xe	0.127859755289	8.68347430553	3.24185804238
Xe	3.43164356331	6.26649103288	2.87191245139
Xe	2.72233204059	9.20488883132	-0.0920128263277
Xe	6.13406621812	5.74299528741	-0.250685790529
Xe	6.07259429056	9.4084361463	2.69853027392
Xe	8.96987723895	6.14962232251	3.0841652487
Xe	9.09063314957	8.75798057322	-0.20802359703
Xe	-0.458854332114	-0.403391318904	6.13773180183
Xe	-0.62186879963	2.91368999475	8.97203543805
Xe	2.96564710293	-0.0460980459534	9.10933329452
Xe	2.48126496812	2.62725123958	6.00136667614
Xe	5.83140205828	-0.156969871341	6.02152526975
Xe	6.01546330893	2.88105776259	8.96720915166
Xe	8.84779390747	-0.283454444564	9.36282540259
Xe	8.90404679208	2.66613829254	5.85191932737
Xe	-0.0670084007459	5.9624712928	6.24403711315
Xe	-0.247327411666	9.09736145292	9.16318291349
Xe	2.8775372624	6.12850225301	9.24182789906
Xe	2.96022466972	9.16076212541	6.23686884924
Xe	5.88887102029	5.93079776785	6.10344990719
Xe	5.88054349263	9.07832667616	9.43337377734
Xe	8.94197623785	6.02757406579	8.89468585336
Xe	8.6778443759	9.09372575851	6.07124183399
32
Frame: 14; Minimum total energy: -5.90179e-12erg; Total energy at start (perturbed): 6.39401e-10erg; Total energy now: -5.00052e-12erg; Discrepancy from stable energy: 15.2712%
Xe	0.0243386190404	0.225786775813	-0.402950802495
Xe	-0.414109354641	3.03318530054	2.99592379595
Xe	2.62287262635	-0.148853339922	2.90138046672
Xe	2.84933383214	3.19957866463	0.192576427176
Xe	5.71661249554	0.235342789627	-0.0158396923865
Xe	5.85197784178	2.8771513273	3.1313881024
Xe	9.68725706756	-0.663405188787	2.60641958759
Xe	8.95104066055	2.76917713056	0.161110050838
Xe	-0.0839770110378	6.02238952295	0.0652193274039
Xe	0.195698928761	8.65790335494	3.29824887405
Xe	3.53165001403	6.32050199852	2.86415109187
Xe	2.71231193714	9.23450301371	-0.0777303881363
Xe	6.17444221711	5.71310856606	-0.271526270307
Xe	6.10573137113	9.46041996383	2.67571941101
Xe	8.99447149209	6.20515665203	3.09509138912
Xe	9.10784304263	8.74365278644	-0.214865835223
Xe	-0.48933149159	-0.424826665029	6.15801287625
Xe	-0.678469261031	2.92643327413	8.96294155422
Xe	3.01163363139	-0.0345515624933	9.13187077989
Xe	2.4253797178	2.57019584475	6.00272268345
Xe	5.83584100653	-0.142334614	6.0389012155
Xe	6.05186232045	2.8905315189	8.96954061898
Xe	8.85654709967	-0.293475117478	9.42090152786
Xe	8.91345787618	2.64497454346	5.85010522993
Xe	-0.0384329699221	5.97931804591	6.29652822904
Xe	-0.249032490373	9.13572928083	9.189214873
Xe	2.89040134046	6.19907653917	9.26860196751
Xe	2.97042051397	9.21031827755	6.27197690887
Xe	5.92062734914	5.9335980711	6.11283816935
Xe	5.90731709305	9.09186561743	9.50153971944
Xe	8.94757824315	6.0606399962	8.8795931809
Xe	8.64657790458	9.11455559905	6.07931734986
32
Frame: 15; Minimum total energy: -5.90179e-12erg; Total energy at start (perturbed): 6.39401e-10erg; Total energy now: -5.12281e-12erg; Discrepancy from stable energy: 13.1991%
Xe	0.00198921107339	0.18945069146	-0.38768212649
Xe	-0.390042184635	3.02521659012	2.99663901166
Xe	2.62386009394	-0.154927083576	2.91170200329
Xe	2.84019900987	3.17769446342	0.159326436496
Xe	5.72112704473	0.196640249152	-0.0353333305219
Xe	5.84675191812	2.8747430451	3.12296630041
Xe	9.63938457945	-0.633337523576	2.62370766193
Xe	8.95067669161	2.77781179963	0.134457024909
Xe	-0.10843494994	6.00629885956	0.0405181363282
Xe	0.159416516295	8.6708978434	3.26578386083
Xe	3.47755688399	6.29206645095	2.86816337773
Xe	2.71900147204	9.22126301499	-0.0849295083858
Xe	6.15283157396	5.73148355593	-0.257767501367
Xe	6.09099446216	9.4378977025	2.68836140748
Xe	8.98085998871	6.17274453685	3.09069607297
Xe	9.09989318771	8.74561710048	-0.208838829888
Xe	-0.472737378018	-0.412858452993	6.14643603862
Xe	-0.64685892246	2.91989538328	8.96934658044
Xe	2.98699773582	-0.0385289641545	9.11957026578
Xe	2.45619885161	2.60456109007	6.00343527844
Xe	5.8329223839	-0.148229547385	6.02863849524
Xe	6.03269470989	2.88384801502	8.96572495937
Xe	8.84969483047	-0.28442163122	9.38829625116
Xe	8.90452811081	2.65809300824	5.8485646821
Xe	-0.0517458149549	5.96826199911	6.2676170247
Xe	-0.244744144947	9.11217682764	9.17561571927
Xe	2.88597471877	6.15688973086	9.2557083964
Xe	2.96884591603	9.18012309824	6.25510644123
Xe	5.89915971026	5.93212968731	6.10947292172
Xe	5.88692461853	9.08651834924	9.46202213354
Xe	8.94618461417	6.04315191018	8.88843371211
Xe	8.66372006333	9.10478436865	6.07642315819
32
Frame: 16; Minimum total energy: -5.90179e-12erg; Total energy at start (perturbed): 6.39401e-10erg; Total energy now: -5.08517e-12erg; Discrepancy from stable energy: 13.8369%
Xe	0.00931384941532	0.201411931689	-0.392208671795
Xe	-0.396357146574	3.0279924474	2.99730679562
Xe	2.62323328341	-0.153018709548	2.90882637502
Xe	2.84269859561	3.18550868241	0.16998259939
Xe	5.71949377588	0.207849321758	-0.0301552643594
Xe	5.84861795963	2.87622954496	3.12738521854
Xe	9.6556853336	-0.643022009443	2.61820027186
Xe	8.95100165212	2.77496192335	0.142354276549
Xe	-0.101171793552	6.01184348836	0.0482827552489
Xe	0.171336554698	8.66652039036	3.2757432709
Xe	3.49515881699	6.30124082684	2.86683629274
Xe	2.71712891364	9.22630422899	-0.0825044591566
Xe	6.15989872276	5.72608581156	-0.261579233743
Xe	6.09663905165	9.4467170005	2.6841815862
Xe	8.98527417803	6.18288845441	3.09224258994
Xe	9.10304899445	8.74314285831	-0.210009956696
Xe	-0.478308857964	-0.41674832481	6.14987548402
Xe	-0.656959662229	2.92213473207	8.96772266187
Xe	2.99540706076	-0.0367784118465	9.12372504868
Xe	2.44604874544	2.59412134201	6.00338546148
Xe	5.83387304135	-0.145680479058	6.03180715014
Xe	6.03912483141	2.88539391514	8.96617779353
Xe	8.8512980425	-0.286138582678	9.39862040241
Xe	8.90608440658	2.65410903318	5.84833609552
Xe	-0.0469294554257	5.97129229109	6.27699377881
Xe	-0.24531356576	9.11907150946	9.1801775898
Xe	2.88805446136	6.16994309164	9.26017622851
Xe	2.97035166079	9.18923309902	6.26121459544
Xe	5.90508555537	5.93248381051	6.11076447229
Xe	5.89174809852	9.08874880768	9.47424756162
Xe	8.94716131227	6.04898481202	8.88582331864
Xe	8.65822491308	9.10838211673	6.07764942256
32
Frame: 17; Minimum total energy: -5.90179e-12erg; Total energy at start (perturbed): 6.39401e-10erg; Total energy now: -5.17972e-12erg; Discrepancy from stable energy: 12.2349%
Xe	-0.00925526104075	0.170987162898	-0.380463617183
Xe	-0.379425790844	3.02110717379	2.99610158878
Xe	2.62468280474	-0.157862383154	2.91656708629
Xe	2.83621196732	3.16597186416	0.142730189452
Xe	5.72352764768	0.17878486494	-0.043910075716
Xe	5.84372638078	2.87277894959	3.11675623473
Xe	9.61463453442	-0.618246704476	2.6322072805
Xe	8.95035477793	2.78224523063	0.121937009883
Xe	-0.120034185588	5.99773996784	0.0282698346257
Xe	0.14111742241	8.67749737377	3.25012614727
Xe	3.45035454269	6.27806616163	2.87017800527
Xe	2.7220795713	9.21390760458	-0.0885757485807
Xe	6.14193752652	5.74014481708	-0.251504062306
Xe	6.08276285814	9.42512946335	2.69488433698
Xe	8.97399577666	6.15666244874	3.08856692287
Xe	9.09517574684	8.74858513533	-0.206736084953
Xe	-0.464117792504	-0.406785952163	6.1410455407
Xe	-0.631111387479	2.91648900094	8.97206383385
Xe	2.9740090943	-0.0408453958915	9.1131173869
Xe	2.47195528806	2.62120609901	6.00376707108
Xe	5.83133743956	-0.151905103557	6.02359384509
Xe	6.022834493	2.88126135306	8.96463775688
Xe	8.84687234033	-0.281269988532	9.37217239865
Xe	8.90160536483	2.66452725638	5.84855373666