108
Frame: 0; Minimum total energy: -2.71621e-11erg; Total energy at start (perturbed): 3.5103e-09erg; Total energy now: 3.5103e-09erg; Discrepancy from stable energy: 13023.5%
Xe	0.114990226262	-1.14583069501	0.170170436877
Xe	-0.703459953051	2.73364452535	3.26187396626
Xe	1.87787083776	0.107206265463	3.00334221265
Xe	1.85764220757	2.8194805172	-0.116830487911
Xe	5.00213915465	0.603829492566	1.11359363347
Xe	5.96254782749	1.87418886956	2.16579909848
Xe	8.65428223322	-0.958282389216	4.02039194095
Xe	8.80705775412	2.27953740803	-0.433404851505
Xe	11.0686514745	-0.646061234492	1.02592510188
Xe	13.4183440337	3.74861427165	2.47899425883
Xe	16.4676563473	0.0655125567507	3.14101150611
Xe	15.7601828022	2.12576449455	-0.408255895676
Xe	-0.876451288917	4.99208625266	-0.878521512043
Xe	0.111953233563	8.68066303897	2.1143061682
Xe	2.22164443013	5.63100529236	2.97603395256
Xe	2.82264669142	9.41456137991	0.312042914443
Xe	5.1381294676	7.22834060126	0.0857433404373
Xe	6.38044018155	10.3821016419	4.24414461691
Xe	8.57874172361	6.34918472398	3.99162414326
Xe	9.32341732893	9.66160424177	0.183516758946
Xe	12.9965426843	6.66819825289	-0.758831339055
Xe	11.3886580715	10.3279398244	1.84633451831
Xe	14.7516933722	6.21166351408	2.9819349386
Xe	15.2595049202	9.23372843195	0.473784230978
Xe	0.896881574796	13.3654595768	-0.533360037516
Xe	-0.188821389377	15.1683947097	2.0785496038
Xe	4.19989323907	11.6736442846	3.29891440454
Xe	3.44923905405	15.7609273836	-0.924251344912
Xe	6.87389524021	11.9388512546	0.645997759818
Xe	5.14121668226	15.8109289936	3.00940965015
Xe	9.32809790167	12.8933410341	4.16910357929
Xe	10.1733889305	16.2230970227	-1.21965504311
Xe	12.4516314186	12.4307754921	1.11498107436
Xe	11.9818126475	14.1856628323	2.56195485131
Xe	14.8599961889	11.3480244991	3.83860842036
Xe	15.7144100987	14.4467294437	-1.04479361785
Xe	-0.507015826384	0.595589950374	5.79452889619
Xe	1.044736279	2.53038148833	10.4191519331
Xe	1.87639069793	-0.53925296673	8.27442491158
Xe	4.21971194173	3.48390305293	7.27373112756
Xe	5.72321844764	-0.828932495672	5.50067245253
Xe	6.50864806417	3.95139682399	8.80547763971
Xe	9.0972779455	-0.845116713593	8.69571431962
Xe	8.93316579482	2.39108103494	6.89044729994
Xe	12.8696501324	-1.14068626059	6.71517853785
Xe	12.3888033995	2.14517631805	8.18696384261
Xe	14.5752933265	0.434009835976	8.86848033175
Xe	16.2072345034	3.81731308389	7.26547061926
Xe	0.590786180393	6.33639668144	5.83428710112
Xe	-0.536767294035	9.01339264171	9.60024348668
Xe	2.21597561261	5.50853395477	9.07777516701
Xe	4.29035052486	8.84774597954	6.47535105994
Xe	7.08054598989	6.30331125584	7.03092454988
Xe	6.71094498171	9.11700372737	10.236584504
Xe	10.1024407052	6.30620434628	9.21015476693
Xe	8.57441043219	10.3946988319	6.65606103259
Xe	11.2588004086	5.80498529376	6.77284501327
Xe	12.9199880746	8.79926368797	9.21241542653
Xe	14.9880192514	5.45499954639	9.56871152952
Xe	16.4199829547	9.98841229747	7.14352484935
Xe	-0.0183562914514	12.2047775843	6.81790631645
Xe	-0.553067223865	15.5177122747	10.0585741475
Xe	3.77567688341	11.3031379172	8.34076969929
Xe	2.2173338276	15.061258904	6.20367297332
Xe	6.70344110816	11.049301434	7.32976788968
Xe	5.14082749131	14.5172840987	9.61645658275
Xe	10.3020721288	12.3606688549	8.00030896719
Xe	10.4149159528	14.8789688193	5.64524957095
Xe	12.5983418135	12.2840840489	5.18561635269
Xe	11.8462025592	15.9182673879	9.34693265213
Xe	15.0065735787	13.3567659191	8.75484640897
Xe	14.1630114837	15.948959124	6.27462499304
Xe	-0.119827476074	0.831682656976	12.4311399694
Xe	-0.178269749501	2.69322086956	15.7866941342
Xe	2.48350832066	-0.613608133594	14.2065991582
Xe	2.98049889111	2.50158709574	11.0611037497
Xe	5.63059469749	1.20417961977	12.3416382826
Xe	4.97479853708	2.6954917546	16.0791531546
Xe	9.05057074779	0.527033595603	14.3188275049
Xe	9.51376467661	2.65239114574	12.0184173074
Xe	13.4311548007	-1.03793784407	11.9018766618
Xe	11.4193275714	3.43052176514	15.2964491349
Xe	14.8340857111	-0.762551471908	15.3320248259
Xe	16.0450219972	2.8373600409	12.577985312
Xe	0.224159728435	5.84754362619	11.5730950678
Xe	-0.976891210124	9.35665435089	15.0589062918
Xe	2.29142621917	6.97663075509	16.172190275
Xe	1.84581490676	10.0759341447	12.2825672145
Xe	5.77031247587	6.99654855373	11.1921493463
Xe	5.04856525651	8.03026705705	15.4790934466
Xe	8.89957096572	4.97470894931	15.3202327709
Xe	8.06485068809	8.19427620998	11.8768926048
Xe	12.4607270734	6.68085898412	13.0381837893
Xe	11.0678459867	8.2941479933	16.2015771926
Xe	14.886894251	6.76516958075	15.4891094218
Xe	14.4235686504	9.91598172205	11.6969934334
Xe	0.183925968209	13.2502809803	12.9860538593
Xe	0.634618198319	16.3689802201	15.2571661244
Xe	3.27864012613	12.1178351308	15.5334782922
Xe	2.17235780617	16.3564520039	11.096225573
Xe	6.72036426035	12.5016779973	13.4203949425
Xe	6.39335402595	14.2071690359	14.5254967164
Xe	8.59962396424	11.6747993277	14.2287105596
Xe	8.69323784675	16.2763609012	11.6099995604
Xe	13.4366245815	12.6820753618	11.7291361635
Xe	12.9996447698	14.5365531006	14.9487454284
Xe	16.0840271995	12.5356503761	15.51614935
Xe	14.9573175459	15.5424758961	11.887248662
108
Frame: 1; Minimum total energy: -2.71621e-11erg; Total energy at start (perturbed): 3.5103e-09erg; Total energy now: 3.5103e-09erg; Discrepancy from stable energy: 13023.5%
Xe	0.114990226262	-1.14583069501	0.170170436877
Xe	-0.703459953051	2.73364452535	3.26187396626
Xe	1.87787083776	0.107206265463	3.00334221265
Xe	1.85764220757	2.8194805172	-0.116830487911
Xe	5.00213915466	0.603829492586	1.11359363349
Xe	5.96254782748	1.87418886954	2.16579909847
Xe	8.65428223322	-0.958282389216	4.02039194095
Xe	8.80705775412	2.27953740803	-0.433404851505
Xe	11.0686514745	-0.646061234492	1.02592510188
Xe	13.4183440337	3.74861427165	2.47899425883
Xe	16.4676563473	0.0655125567508	3.14101150611
Xe	15.7601828022	2.12576449455	-0.408255895676
Xe	-0.876451288916	4.99208625266	-0.878521512043
Xe	0.111953233563	8.68066303897	2.1143061682
Xe	2.22164443013	5.63100529236	2.97603395256
Xe	2.82264669142	9.41456137991	0.312042914443
Xe	5.1381294676	7.22834060126	0.0857433404373
Xe	6.38044018155	10.3821016419	4.24414461691
Xe	8.57874172361	6.34918472398	3.99162414326
Xe	9.32341732893	9.66160424177	0.183516758946
Xe	12.9965426843	6.66819825289	-0.758831339055
Xe	11.3886580715	10.3279398244	1.84633451831
Xe	14.7516933722	6.21166351408	2.9819349386
Xe	15.2595049202	9.23372843195	0.473784230978
Xe	0.896881574796	13.3654595768	-0.533360037516
Xe	-0.188821389377	15.1683947097	2.0785496038
Xe	4.19989323907	11.6736442846	3.29891440454
Xe	3.44923905405	15.7609273836	-0.924251344912
Xe	6.87389524021	11.9388512546	0.645997759818
Xe	5.14121668226	15.8109289936	3.00940965015
Xe	9.32809790167	12.8933410341	4.16910357929
Xe	10.1733889305	16.2230970227	-1.21965504311
Xe	12.4516314186	12.4307754921	1.11498107436
Xe	11.9818126475	14.1856628323	2.56195485131
Xe	14.8599961889	11.3480244991	3.83860842036
Xe	15.7144100987	14.4467294437	-1.04479361785
Xe	-0.507015826384	0.595589950374	5.79452889619
Xe	1.04473627902	2.53038148833	10.4191519331
Xe	1.87639069793	-0.53925296673	8.27442491158
Xe	4.21971194173	3.48390305293	7.27373112756
Xe	5.72321844764	-0.828932495672	5.50067245253
Xe	6.50864806417	3.95139682399	8.80547763971
Xe	9.0972779455	-0.845116713593	8.69571431962
Xe	8.93316579482	2.39108103494	6.89044729994
Xe	12.8696501324	-1.14068626061	6.71517853784
Xe	12.3888033995	2.14517631804	8.18696384261
Xe	14.5752933265	0.434009835976	8.86848033175
Xe	16.2072345034	3.81731308389	7.26547061926
Xe	0.590786180393	6.33639668144	5.83428710112
Xe	-0.536767294035	9.01339264171	9.60024348668
Xe	2.21597561261	5.50853395477	9.07777516701
Xe	4.29035052486	8.84774597954	6.47535105994
Xe	7.08054598989	6.30331125584	7.03092454988
Xe	6.71094498171	9.11700372737	10.236584504
Xe	10.1024407052	6.30620434628	9.21015476693
Xe	8.57441043219	10.3946988319	6.65606103259
Xe	11.2588004086	5.80498529376	6.77284501327
Xe	12.9199880746	8.79926368797	9.21241542653
Xe	14.9880192514	5.45499954639	9.56871152952
Xe	16.4199829547	9.98841229747	7.14352484935
Xe	-0.0183562914514	12.2047775843	6.81790631645
Xe	-0.553067223865	15.5177122747	10.0585741475
Xe	3.77567688341	11.3031379172	8.34076969929
Xe	2.2173338276	15.061258904	6.20367297332
Xe	6.70344110817	11.049301434	7.32976788968
Xe	5.14082749131	14.5172840987	9.61645658275
Xe	10.3020721288	12.3606688549	8.00030896719
Xe	10.4149159528	14.8789688193	5.64524957095
Xe	12.5983418135	12.2840840489	5.18561635269
Xe	11.8462025592	15.9182673879	9.34693265213
Xe	15.0065735787	13.3567659191	8.75484640897
Xe	14.1630114837	15.948959124	6.27462499305
Xe	-0.119827476074	0.831682656976	12.4311399694
Xe	-0.178269749501	2.69322086956	15.7866941342
Xe	2.48350832066	-0.613608133595	14.2065991582
Xe	2.9804988911	2.50158709574	11.0611037497
Xe	5.63059469749	1.20417961977	12.3416382826
Xe	4.97479853708	2.6954917546	16.0791531546
Xe	9.05057074779	0.527033595603	14.3188275049
Xe	9.51376467661	2.65239114574	12.0184173074
Xe	13.4311548007	-1.03793784408	11.9018766618
Xe	11.4193275714	3.43052176514	15.2964491349
Xe	14.8340857111	-0.762551471908	15.3320248259
Xe	16.0450219972	2.8373600409	12.577985312
Xe	0.224159728435	5.84754362619	11.5730950678
Xe	-0.976891210125	9.35665435089	15.0589062918
Xe	2.29142621917	6.97663075509	16.172190275
Xe	1.84581490676	10.0759341447	12.2825672145
Xe	5.77031247587	6.99654855374	11.1921493463
Xe	5.04856525651	8.03026705705	15.4790934466
Xe	8.89957096572	4.97470894931	15.3202327709
Xe	8.06485068808	8.19427620998	11.8768926048
Xe	12.4607270734	6.68085898412	13.0381837893
Xe	11.0678459867	8.2941479933	16.2015771926
Xe	14.886894251	6.76516958075	15.4891094218
Xe	14.4235686504	9.91598172205	11.6969934334
Xe	0.183925968209	13.2502809803	12.9860538593
Xe	0.634618198319	16.3689802201	15.2571661244
Xe	3.27864012613	12.1178351308	15.5334782922
Xe	2.17235780617	16.3564520039	11.096225573
Xe	6.72036426035	12.5016779973	13.4203949425
Xe	6.39335402595	14.2071690359	14.5254967164
Xe	8.59962396424	11.6747993277	14.2287105596
Xe	8.69323784675	16.2763609012	11.6099995604
Xe	13.4366245815	12.6820753618	11.7291361635
Xe	12.9996447698	14.5365531006	14.9487454284
Xe	16.0840271995	12.5356503761	15.51614935
Xe	14.9573175459	15.5424758961	11.887248662
108
Frame: 2; Minimum total energy: -2.71621e-11erg; Total energy at start (perturbed): 3.5103e-09erg; Total energy now: 1.42908e-09erg; Discrepancy from stable energy: 5361.31%
Xe	0.115054810884	-1.14528934767	0.169586281396
Xe	-0.703278876816	2.73411651052	3.26182518361
Xe	1.87790235369	0.107200100772	3.00336160182
Xe	1.85773636293	2.81946982084	-0.11672237776
Xe	4.92177597159	0.492384500232	1.02423887295
Xe	6.03084978222	1.96085392711	2.23968500368
Xe	8.65434337781	-0.958257018588	4.02032857344
Xe	8.80705525061	2.27953059664	-0.433396187501
Xe	11.0688854439	-0.645694022877	1.02643530091
Xe	13.4179623128	3.74785953786	2.47886596843
Xe	16.4672696945	0.0649494642261	3.14071943433
Xe	15.7600779791	2.12568955097	-0.408199125153
Xe	-0.876547747426	4.99246783094	-0.87827802128
Xe	0.111884869432	8.68065014804	2.11435534381
Xe	2.22168746729	5.63098143259	2.97596538383
Xe	2.82258438991	9.41469949821	0.312027461492
Xe	5.13826060312	7.22816167459	0.0859476039752
Xe	6.38145424619	10.381319179	4.244333226
Xe	8.57876495087	6.34918810366	3.99154871472
Xe	9.32228411426	9.66128383616	0.182725422437
Xe	12.9963683389	6.66780522034	-0.758071516346
Xe	11.3872365451	10.3232280372	1.84856750743
Xe	14.7520374105	6.21225012141	2.98208065561
Xe	15.2595013826	9.23374866445	0.473774134474
Xe	0.896866383441	13.3653835281	-0.533397099111
Xe	-0.188922438612	15.1677709956	2.07910223318
Xe	4.19850633695	11.6743317319	3.29838384545
Xe	3.44929132778	15.760940061	-0.924240779512
Xe	6.87384653747	11.9388999593	0.645990156217
Xe	5.14117072674	15.8107636119	3.00920152794
Xe	9.3273474208	12.892091289	4.16820321521
Xe	10.1731525784	16.2226807434	-1.22029335314
Xe	12.4560766116	12.4248902099	1.10565882236
Xe	11.9796447905	14.1933350941	2.56822407545
Xe	14.8607155231	11.3476900972	3.83811420109
Xe	15.7141775126	14.4478835685	-1.0436613002
Xe	-0.50690673967	0.595581924109	5.79481385432
Xe	0.973637124525	2.53247056761	10.3988273508
Xe	1.87639870377	-0.53916461563	8.27430442734
Xe	4.2188404397	3.48369416113	7.27310773025
Xe	5.72315768489	-0.828799665535	5.50089470447
Xe	6.50926202075	3.95125736071	8.80621242525
Xe	9.0971847204	-0.845018155331	8.69554372924
Xe	8.93317679042	2.39106928293	6.89040205837
Xe	12.7346039065	-1.03664996797	6.75547587651
Xe	12.3881998134	2.14559246883	8.18681125251
Xe	14.5758977164	0.433646415058	8.86874074374
Xe	16.207331904	3.81716805428	7.26525448727
Xe	0.590742154816	6.33641884768	5.83432798691
Xe	-0.536612697619	9.01327516118	9.60049266128
Xe	2.21603278282	5.50860997663	9.07766715518
Xe	4.2902812408	8.84748484849	6.47523135908
Xe	7.08057982551	6.30357136666	7.03073208118
Xe	6.70504346855	9.12445778702	10.2257882788
Xe	10.1018962498	6.30642506469	9.2111376412
Xe	8.60771065895	10.3803224311	6.64146667694
Xe	11.2593134126	5.80476635733	6.77157581476
Xe	12.919877091	8.79919474974	9.21221247473
Xe	14.9879111888	5.45512847294	9.56888944559
Xe	16.4194977531	9.98816649016	7.143244559
Xe	-0.0181081832023	12.2050519305	6.81786269534
Xe	-0.553350597664	15.5176297017	10.0584233005
Xe	3.77538627773	11.303295293	8.3409564835
Xe	2.21734867855	15.0612332931	6.20364132667
Xe	6.65678614578	11.0629053319	7.34368680233
Xe	5.14084232685	14.5172914024	9.61645722839
Xe	10.3023298713	12.3609279702	8.00057927562
Xe	10.4154429619	14.8800118604	5.64603681044
Xe	12.5975547797	12.2842852024	5.18613019494
Xe	11.8461683084	15.9180692571	9.34705066621
Xe	15.0065893626	13.356751142	8.75479141219
Xe	14.2665995312	15.8130586321	6.23527951102
Xe	-0.119906634605	0.831005059181	12.4315123024
Xe	-0.178197707557	2.69284013475	15.7862376492
Xe	2.48570512539	-0.611904724944	14.205244646
Xe	3.02968302081	2.50168684565	11.0801607755
Xe	5.63069705766	1.20411899158	12.3416855943
Xe	4.97480480957	2.6954954682	16.0791435923
Xe	9.05054412738	0.526901491258	14.318948384
Xe	9.51379019708	2.65249959422	12.0182608477
Xe	13.4248938803	-1.0319322153	11.9021115114
Xe	11.4196931316	3.4302718881	15.2964546067
Xe	14.8341018274	-0.76252388406	15.332037147
Xe	16.0447008286	2.83758863444	12.5780042474
Xe	0.224059865233	5.84757473597	11.5732149738
Xe	-0.976862846426	9.35662053468	15.0588998026
Xe	2.29107098257	6.97648890991	16.1722229272
Xe	1.84583671622	10.0759149591	12.2825670112
Xe	5.76702574967	6.99176047936	11.193221665
Xe	5.04882608532	8.03043891262	15.4787551397
Xe	8.89912429921	4.97494487081	15.3202321536
Xe	8.07238210588	8.19021429741	11.8846889056
Xe	12.4606881632	6.68085066192	13.0381316606
Xe	11.0674719631	8.2944145261	16.2011735766
Xe	14.8873420579	6.76518897153	15.4885344402
Xe	14.4238396291	9.91552364061	11.6971582675
Xe	0.183929717836	13.2502864437	12.986042603
Xe	0.631926570833	16.3670120597	15.2584047206
Xe	3.27865242773	12.1178169649	15.5334586101
Xe	2.17262031766	16.3564440346	11.0963944275
Xe	6.70752654259	12.4561413884	13.3798361397
Xe	6.38513398528	14.2464554436	14.5526624614
Xe	8.61600541917	11.6661315388	14.2365515785
Xe	8.69321334511	16.276290504	11.6101171717
Xe	13.4363639672	12.6823446286	11.7291719548
Xe	12.9995875538	14.5365366035	14.9487419364
Xe	16.0842606629	12.5342519009	15.5148194644
Xe	14.9624927536	15.534934286	11.8873417574
108
Frame: 3; Minimum total energy: -2.71621e-11erg; Total energy at start (perturbed): 3.5103e-09erg; Total energy now: 7.93414e-10erg; Discrepancy from stable energy: 3021.03%
Xe	0.115285783317	-1.14334710415	0.167492663866
Xe	-0.702628269476	2.73581391034	3.2616491385
Xe	1.87800768211	0.10717908163	3.00343898329
Xe	1.85807466595	2.81943271597	-0.116332575848
Xe	4.87828484303	0.432360153391	0.975831656948
Xe	6.06863873621	2.00912908538	2.28068258776
Xe	8.65456399122	-0.958165649984	4.02009975175
Xe	8.80704582275	2.27950509112	-0.433366150128
Xe	11.0697254022	-0.64437553543	1.02826620207
Xe	13.4165926454	3.74515177397	2.47840576026
Xe	16.4658785311	0.062925226326	3.13966783574
Xe	15.7596998035	2.1254191648	-0.407994339167
Xe	-0.876894568619	4.99384104585	-0.877402056018
Xe	0.111637889298	8.68060356389	2.11453304152
Xe	2.22184294301	5.6308953069	2.97571775303
Xe	2.82235983298	9.41519804316	0.311971432022
Xe	5.13873376418	7.22751614604	0.0866839135893
Xe	6.38508709743	10.3785355441	4.2450431777
Xe	8.57884887147	6.34920015942	3.99127587505
Xe	9.31820083992	9.66013694043	0.179868214295
Xe	12.995744388	6.66639124223	-0.755341533902
Xe	11.3822777613	10.3067235308	1.85655893241
Xe	14.7532718391	6.21435477456	2.98260365841
Xe	15.2594886777	9.23382158943	0.47373749451
Xe	0.89681137411	13.3651088416	-0.533530814573
Xe	-0.189285346429	15.1655349122	2.08108580834
Xe	4.1935643388	11.6767816657	3.29649452316
Xe	3.44947512709	15.7609761186	-0.924208590679
Xe	6.87367010266	11.939076317	0.645962959345
Xe	5.14100745245	15.8101568737	3.00845950277
Xe	9.32466920725	12.887644866	4.1649969992
Xe	10.1723040981	16.2211865702	-1.22258422084
Xe	12.4710401459	12.40728264	1.07517915033
Xe	11.9726782176	14.2179595026	2.58829892156
Xe	14.8632918864	11.3464929576	3.83634383546
Xe	15.7133515682	14.451981293	-1.03963968074
Xe	-0.506514194196	0.595552920702	5.79583996607
Xe	0.858426390524	2.53649041767	10.3643083891
Xe	1.87642823799	-0.538844266849	8.27387115614
Xe	4.21572174937	3.48294473636	7.27087405182
Xe	5.72293801749	-0.828320640392	5.50169615556
Xe	6.51145815238	3.95075120939	8.80884848999
Xe	9.09684268767	-0.844662212776	8.69493055504
Xe	8.93321637604	2.39102677353	6.89023832072
Xe	12.6820493213	-0.994544553265	6.77018833961
Xe	12.3860313455	2.14713743593	8.1862890444
Xe	14.5780938403	0.432319723206	8.86966535361
Xe	16.2076828102	3.81664526853	7.26447499913
Xe	0.590583103821	6.33649893304	5.83447561036
Xe	-0.536055745547	9.01285213024	9.60139010594
Xe	2.21623862662	5.5088710456	9.07728647682
Xe	4.29001538188	8.84652333103	6.4747918696
Xe	7.0807009024	6.3045080367	7.03003919441
Xe	6.68693432206	9.14849954118	10.1916396787
Xe	10.0999527875	6.30721229491	9.21464679114
Xe	8.67746310719	10.3496435247	6.61071109981
Xe	11.2611452675	5.80398481295	6.76704516592
Xe	12.9194764892	8.79894618063	9.21147998815
Xe	14.98752157	5.45559326935	9.56953096066
Xe	16.417750193	9.98728172526	7.1422344988
Xe	-0.0172151771721	12.2060394038	6.81770581231
Xe	-0.554368107471	15.5173327152	10.0578764731
Xe	3.77411302354	11.3038787109	8.34169675916
Xe	2.21740236442	15.061140799	6.20352695044
Xe	6.56040976589	11.091533299	7.37280502599
Xe	5.1408957524	14.5173182096	9.61645966543
Xe	10.3032528812	12.3618839857	8.00157301896
Xe	10.4173204831	14.883721435	5.64884097134
Xe	12.5947372303	12.2849955522	5.18797012853
Xe	11.8460564271	15.9172670247	9.34754575397
Xe	15.0066515988	13.3566746163	8.75461492954
Xe	14.308525492	15.7602952285	6.21955587728
Xe	-0.12018139779	0.828466881926	12.4329610646
Xe	-0.177938825279	2.69147079916	15.7845940036
Xe	2.49338331397	-0.605954781867	14.2005244289
Xe	3.11106901371	2.50189070907	11.1113951685
Xe	5.63115524342	1.20384492035	12.3419031747
Xe	4.97482791582	2.69550994428	16.0791085275
Xe	9.05044803974	0.526424831159	14.319384559
Xe	9.51388228082	2.65289089605	12.0176962285
Xe	13.4043993124	-1.01222886841	11.9029022351
Xe	11.4210088713	3.42937276786	15.2964743441
Xe	14.8341599107	-0.762424416647	15.3320809813
Xe	16.0435405718	2.83841241752	12.5780744324
Xe	0.223700748216	5.84769067745	11.5736499479
Xe	-0.976759827081	9.35649728548	15.0588762668
Xe	2.28979142309	6.97597774482	16.1723402698
Xe	1.84591559975	10.0758456547	12.2825663014
Xe	5.75593408381	6.9756447728	11.1968234687
Xe	5.04976563735	8.03105814723	15.4775358422
Xe	8.89751691805	4.97579396223	15.3202297959
Xe	8.09632935872	8.1776908396	11.9092570846
Xe	12.4605474827	6.68082054831	13.037943294
Xe	11.0661287849	8.29537213142	16.1997197766
Xe	14.8889496348	6.76525851234	15.4864706104
Xe	14.4248162601	9.91387538261	11.6977532242
Xe	0.183943575943	13.2503061045	12.986001588
Xe	0.622527882942	16.3601395102	15.262720394
Xe	3.27869839283	12.1177517945	15.5333869097
Xe	2.17356629295	16.3564144675	11.0970027271
Xe	6.65682404819	12.3798098294	13.2923672751
Xe	6.37070567136	14.3205710401	14.6042125937
Xe	8.66589231606	11.6415010729	14.2613362961
Xe	8.69312479486	16.276036226	11.6105416877
Xe	13.4354188359	12.6833038933	11.7293005464
Xe	12.9993812431	14.5364771124	14.9487293334
Xe	16.0850868078	12.5292895517	15.5100998719
Xe	14.9794654181	15.5102880808	11.8876586584
108
Frame: 4; Minimum total energy: -2.71621e-11erg; Total energy at start (perturbed): 3.5103e-09erg; Total energy now: 4.40157e-10erg; Discrepancy from stable energy: 1720.48%
Xe	0.115998495805	-1.13727543492	0.160973198048
Xe	-0.700584037384	2.74116477836	3.261087353
Xe	1.87833040623	0.107114384632	3.00369952253
Xe	1.8591497583	2.81931742432	-0.115090482509
Xe	4.82368247703	0.357093952521	0.914762209189
Xe	6.1166046506	2.07065049594	2.33286859472
Xe	8.65526695904	-0.957872934986	4.01936680404
Xe	8.80701475932	2.27942191562	-0.433271965599
Xe	11.0723569459	-0.64024303703	1.03399428764
Xe	13.4123098633	3.7366880835	2.47696793193
Xe	16.4614847166	0.0565528297117	3.13633986105
Xe	15.7584939354	2.12455688651	-0.4073416263
Xe	-0.877987035157	4.99818074637	-0.874637223152
Xe	0.110846471514	8.68045409266	2.11510288672
Xe	2.22234113744	5.6306196592	2.97492496392
Xe	2.82164624589	9.41679059215	0.311789533813
Xe	5.14024297135	7.22545767137	0.089024412623
Xe	6.39627365249	10.3700690825	4.24738819541
Xe	8.57911829738	6.34923822532	3.99039806566
Xe	9.30525749316	9.6565859796	0.170747516687
Xe	12.9938114424	6.66192795468	-0.74676426093
Xe	11.3685531937	10.2597688759	1.88107898872
Xe	14.7571316419	6.22093408374	2.98424079345
Xe	15.2594487624	9.23405336878	0.47361816509
Xe	0.896633404408	13.3642288947	-0.53395738383
Xe	-0.190423824466	15.1585636801	2.08729572763
Xe	4.17848605512	11.6842598878	3.29074370884
Xe	3.45004588413	15.7610660851	-0.924123665338
Xe	6.87309920968	11.9396459056	0.645878816741
Xe	5.1404931318	15.8082069769	3.00611378253
Xe	9.31645400489	12.8741421374	4.15524168932
Xe	10.1696462208	16.2165086613	-1.22975351342
Xe	12.5095717963	12.378107038	1.0032040028
Xe	11.9572376663	14.2724705516	2.63226123657
Xe	14.8712964785	11.3427788008	3.83083996834
Xe	15.710861006	14.4643291541	-1.02750661399
Xe	-0.505275346865	0.595459646564	5.79908971868
Xe	0.750472146897	2.54317410144	10.3259679998
Xe	1.87652618253	-0.537812859572	8.27249785297
Xe	4.20606398509	3.48060240926	7.26392232906
Xe	5.72223303378	-0.826795286985	5.50424970638
Xe	6.51824780822	3.94910372309	8.81708906358
Xe	9.09573956952	-0.843525773116	8.6929775996
Xe	8.93334114944	2.3908908135	6.88971089465
Xe	12.6052436691	-0.932346245466	6.78928088642
Xe	12.379249789	2.15206777328	8.18470622026
Xe	14.5850140617	0.428150598231	8.87254785478
Xe	16.2087969881	3.81498276873	7.2619931107
Xe	0.590073455306	6.33675565554	5.83494764992
Xe	-0.53428891107	9.01151244374	9.60423440136
Xe	2.21689044839	5.50964038382	9.07611735578
Xe	4.28905736061	8.84331789756	6.47333529678
Xe	7.08107578257	6.30747498565	7.02784732886
Xe	6.65208180775	9.202799799	10.1189072176
Xe	10.093986114	6.30962220006	9.22542846156
Xe	8.75308526077	10.3128442884	6.57568053963
Xe	11.2667767187	5.80158532881	6.75313358419
Xe	12.9181968332	8.79815513735	9.20914123955
Xe	14.9862818398	5.45707181065	9.57157235118
Xe	16.412211641	9.98448295416	7.13902728382
Xe	-0.0143907012415	12.2091608758	6.81721146271
Xe	-0.557559296451	15.5163966827	10.0561044205
Xe	3.76791280141	11.3058754775	8.34468716669
Xe	2.21757542549	15.0608449586	6.20315996155
Xe	6.45998212786	11.1237547101	7.40407043207
Xe	5.14106564173	14.5174077995	9.61646796394
Xe	10.3061162906	12.3650404638	8.00484389871
Xe	10.4229731184	14.895011651	5.65740373496
Xe	12.5860225926	12.2871391108	5.19369518498
Xe	11.8457391257	15.9145977925	9.34918024101
Xe	15.006856948	13.3563903093	8.75407775986
Xe	14.3704545975	15.6834822308	6.1963088944
Xe	-0.12089401102	0.820025177509	12.4380079226
Xe	-0.177125061134	2.68715316363	15.7793897886
Xe	2.51532158898	-0.58899353762	14.1871849352
Xe	3.18895776221	2.50277949616	11.1408448928
Xe	5.63324234462	1.2025696695	12.3429286218
Xe	4.97490295231	2.69555805098	16.0789955984
Xe	9.05014130072	0.524904363219	14.3207762877
Xe	9.51417606025	2.65413933168	12.0158944341
Xe	13.3566275993	-0.965945053333	11.9049547946
Xe	11.425168804	3.42653284187	15.2965372638
Xe	14.8343444941	-0.762107674048	15.3322143651
Xe	16.039842544	2.84102602501	12.578308835
Xe	0.22256213712	5.8480774194	11.5750510477
Xe	-0.976423354279	9.35608986443	15.0587997927
Xe	2.28573480635	6.9743543592	16.1727092159
Xe	1.84616931039	10.0756236573	12.2825643752
Xe	5.72741914453	6.93465946518	11.2058883601
Xe	5.05274482893	8.03302378943	15.4736621524
Xe	8.89243801803	4.97847788155	15.3202208666
Xe	8.1483606539	8.15331114003	11.9610252062
Xe	12.4600954415	6.68072349998	13.0373392459
Xe	11.0619165728	8.29838022515	16.1951108559
Xe	14.8939852398	6.76547547376	15.4800091894
Xe	14.4279191105	9.90866946586	11.6996535234
Xe	0.18399159505	13.2503682714	12.985866239
Xe	0.595765609254	16.3405693377	15.2749070668
Xe	3.27885311641	12.1175458047	15.5331547864
Xe	2.17657025823	16.3563101861	11.0989323586
Xe	6.55893908079	12.3139133117	13.1795359561
Xe	6.35868946848	14.3977884218	14.6590499165
Xe	8.75029995201	11.6051498846	14.3058466611
Xe	8.69284111775	16.2752228008	11.6118974021
Xe	13.4323514603	12.686229014	11.7297046955
Xe	12.9987245921	14.5362875158	14.9486891825
Xe	16.0875451466	12.5143689366	15.4959018558
Xe	15.0192826901	15.4532248378	11.888524677
108
Frame: 5; Minimum total energy: -2.71621e-11erg; Total energy at start (perturbed): 3.5103e-09erg; Total energy now: 2.47411e-10erg; Discrepancy from stable energy: 1010.87%
Xe	0.11805107635	-1.11900940365	0.141613569124
Xe	-0.694343846554	2.7576732274	3.25928685687
Xe	1.87931383163	0.106914926598	3.00459429927
Xe	1.86256204203	2.81896448135	-0.111126473611
Xe	4.76501417502	0.276155064823	0.847884507154
Xe	6.16901879053	2.13836806257	2.39032343781
Xe	8.65750833517	-0.956919527656	4.01698893725
Xe	8.80691029581	2.27914726167	-0.432974451089
Xe	11.0803261097	-0.627721759794	1.05125988665
Xe	13.3994212117	3.71124761425	2.47265276594
Xe	16.4478475723	0.0369793352845	3.12595006859
Xe	15.7546384809	2.12179881555	-0.40525764479
Xe	-0.881348309326	5.01167272244	-0.866074890186
Xe	0.108276472896	8.67996659016	2.11695783755
Xe	2.22395899537	5.62972737496	2.97235744835
Xe	2.81939032691	9.42191140959	0.311174666279
Xe	5.14507253453	7.21887531479	0.0964335421185
Xe	6.42763434674	10.3464063839	4.25355559035
Xe	8.57999848536	6.34935909273	3.98751287141
Xe	9.26523138647	9.64634504303	0.142016130564
Xe	12.9881618023	6.64810315146	-0.720574015426
Xe	11.3447227133	10.1583713808	1.94724715991
Xe	14.7687462432	6.24071605605	2.98918538575
Xe	15.259324312	9.23479043246	0.473211766362
Xe	0.896038025806	13.3613740531	-0.535323251909
Xe	-0.193887025411	15.1377778982	2.1060629986
Xe	4.13629607695	11.7052105207	3.27477324629
Xe	3.4517845986	15.7612021332	-0.92397527195
Xe	6.87118814028	11.9415425152	0.645634916855
Xe	5.138885373	15.8019238709	2.99872948155
Xe	9.29307753634	12.8368169277	4.12816828105
Xe	10.1616027301	16.2023774475	-1.25138158002
Xe	12.5857333597	12.3655801632	0.877737362546
Xe	11.9342833247	14.3550147366	2.69555466519
Xe	14.8949371327	11.331855985	3.8145589322
Xe	15.7041109422	14.4977074717	-0.994576757546
Xe	-0.50144329032	0.59515294553	5.80925869621
Xe	0.634141147719	2.55898851609	10.2677375534
Xe	1.8768613308	-0.534472347584	8.26814070902
Xe	4.1778586688	3.47355013408	7.24326918389
Xe	5.71993367634	-0.821939372193	5.51239629497
Xe	6.53796676647	3.94353911892	8.84190610289
Xe	9.09212733108	-0.839881071254	8.68673928273
Xe	8.93372453185	2.39045268919	6.88797048059
Xe	12.5194494393	-0.862298098964	6.80093022195
Xe	12.3588648453	2.16753541884	8.18027517649
Xe	14.6061795673	0.415557938288	8.88119945859
Xe	16.2123201491	3.80970986064	7.25410311161
Xe	0.588418799206	6.33759047521	5.83647003361
Xe	-0.528731795866	9.00732128554	9.61315385602
Xe	2.21895899083	5.51197478903	9.07250071665
Xe	4.28559866512	8.83261867269	6.46851291606
Xe	7.08216405018	6.31676391038	7.02101864568
Xe	6.61228100835	9.28806913864	10.0156397112
Xe	10.0769828442	6.31642291978	9.25622849122
Xe	8.8335159803	10.261434361	6.53211234669
Xe	11.2828952292	5.79474714015	6.71346765308
Xe	12.9140833737	8.79564249035	9.20163412903
Xe	14.9823434903	5.4617647939	9.57805649532
Xe	16.3948405119	9.97575540254	7.12890949953
Xe	-0.00559018819622	12.218869472	6.8156889791
Xe	-0.567284796976	15.5135097639	10.0501959942
Xe	3.73650186867	11.3128589967	8.35760309717
Xe	2.21814790511	15.0598912445	6.20196289002
Xe	6.36839792216	11.1629405091	7.43293140449
Xe	5.141613964	14.5177179374	9.61649211706
Xe	10.3146788766	12.3751551656	8.01544035804
Xe	10.4380857182	14.9264119594	5.68145650962
Xe	12.5606764831	12.2929193474	5.2106976102
Xe	11.8449963827	15.9055723523	9.35453849903
Xe	15.0075464134	13.3552429314	8.75247106718
Xe	14.4402328073	15.5990143379	6.16955150903
Xe	-0.12217574755	0.793282066185	12.4542682525
Xe	-0.174637181974	2.67382730927	15.76311282
Xe	2.56709536934	-0.549278650336	14.1568930278
Xe	3.26967306958	2.50742408764	11.170713532
Xe	5.64265537902	1.19667420216	12.3476592551
Xe	4.97515181001	2.69572158176	16.078627743
Xe	9.04915862933	0.520037945428	14.325235341
Xe	9.51511780346	2.65813809438	12.010119833
Xe	13.2808255513	-0.890929604835	11.9095494926
Xe	11.4381195184	3.41771948457	15.2967384815