108
Frame: 0; Minimum total energy: -2.71621e-11erg; Total energy at start (perturbed): 5.99944e-09erg; Total energy now: 5.99944e-09erg; Discrepancy from stable energy: 22187.5%
Xe	-0.406480170039	0.723277032169	0.204076872784
Xe	-0.36110230839	2.68779308052	3.39399861138
Xe	2.57210649553	-0.294634754884	1.86678059167
Xe	3.7841937546	3.82942896179	-0.25031267486
Xe	6.48943482695	-1.11034702874	0.294346803897
Xe	6.15842081481	2.81795179971	2.34450643208
Xe	8.68759411417	-0.839075809755	4.23712837408
Xe	8.48076360526	3.89245256056	-0.884882691993
Xe	11.2429555586	-0.899147444819	1.11593369585
Xe	11.6233495201	3.94069683294	2.94996762954
Xe	15.6557884773	-0.92192040761	3.88940189892
Xe	14.9489019493	2.41112785276	0.874759487005
Xe	-0.66521124324	5.76974073677	-0.777995052039
Xe	-0.06430818725	9.97647809005	2.71351626674
Xe	2.04063648993	6.1816200943	3.36662036045
Xe	2.08531346009	8.35992535676	0.368596183097
Xe	7.07540464077	6.08702031692	-0.819967433038
Xe	6.09514903397	8.46539619845	3.43223380134
Xe	9.718989766	5.56014814741	3.36905644481
Xe	8.14224112983	9.89662907505	-0.2456093931
Xe	12.0127204288	5.6382176409	0.512649095651
Xe	13.1907257521	9.33806457324	2.69447698168
Xe	15.0706149614	7.11795588816	2.33670174727
Xe	14.9453144199	8.60930454772	0.716877477704
Xe	0.674487160387	11.7174802355	-0.890637378164
Xe	1.00880407922	14.2598816716	3.5803765373
Xe	4.22575311721	13.0588160439	4.15002193701
Xe	1.89839183757	14.7304524047	-0.842272271506
Xe	7.17269542882	11.6438401199	0.325069354479
Xe	6.6712694845	15.1084041836	2.10538947572
Xe	8.05153859713	12.1981466692	3.85280408372
Xe	8.34678943355	15.903075888	-0.389726026772
Xe	12.9864441857	12.4904350667	0.197515875668
Xe	12.5075105666	14.5732240174	3.08641849054
Xe	14.1755703418	12.9962625046	1.97415738696
Xe	15.4318694995	15.647851142	-0.474122336895
Xe	0.45893558394	0.897766440214	6.99607861385
Xe	0.328649272229	2.54819228137	9.76005844618
Xe	3.86970286605	0.179405741315	10.1173299897
Xe	2.10448532241	2.80517118141	6.97920322275
Xe	6.92982616943	1.03056936616	5.75292115931
Xe	5.00540053472	3.61262142261	8.45037280198
Xe	9.35285216169	-0.0805614635962	8.32832472547
Xe	9.49819739387	2.8519468627	5.73048087397
Xe	11.3767894922	0.841844866187	7.06509640149
Xe	13.1986773113	3.88130377467	9.89708966809
Xe	15.6573550949	0.624636121943	9.30876582264
Xe	15.4633679015	3.4842649324	6.06315648755
Xe	-0.658598440442	5.51009910239	4.97946966957
Xe	-0.731106376436	9.25033096453	9.9657944788
Xe	2.94789549906	6.94394107313	9.47654414951
Xe	2.25170095793	9.79776238026	6.14536161629
Xe	6.79946807659	6.49894128624	6.73040764182
Xe	6.58454341335	8.88783335708	9.39800611875
Xe	8.63065794261	6.64508589513	8.69749926696
Xe	8.79501773838	9.8518607107	7.12496549648
Xe	11.4470238119	6.91355391178	5.68197078936
Xe	13.312316568	8.00137950357	10.1536714593
Xe	16.4218977937	5.22757932367	8.49393674772
Xe	15.5156950144	8.4048819653	6.53031316185
Xe	-1.10802999581	12.6742307351	6.13995021114
Xe	-0.893174719766	14.9930377237	10.1008634698
Xe	2.89605417142	12.4170401037	8.02510987061
Xe	3.44864545846	14.6915960337	5.3313085264
Xe	5.35283743596	12.3626728963	7.00539900163
Xe	6.16912844189	16.3797819499	10.2732881497
Xe	9.17629138755	11.3649808797	9.46908245384
Xe	9.50194567833	14.246662944	5.18606263507
Xe	11.4545276061	11.1318859508	7.21899746804
Xe	13.4847665047	14.3211249871	9.97622372531
Xe	16.3626260611	12.4954113701	9.29503035786
Xe	15.0149034996	16.4576881981	5.04090492868
Xe	-0.919178268642	0.986304853691	12.7769841671
Xe	-0.546925041612	3.32096583516	14.1570645348
Xe	4.18783957081	1.16225105128	14.3685200801
Xe	3.98127206296	3.50349758247	12.3220522996
Xe	4.97971412318	-1.08361302109	12.8410465516
Xe	7.1886468262	4.263700836	15.5387905754
Xe	8.81124628585	0.793804390764	14.9605338202
Xe	9.7364918288	3.0666509485	13.1666700147
Xe	13.1806144776	0.926975321879	12.0043620065
Xe	12.8212305981	1.99313869762	16.2641150027
Xe	15.5789293005	0.0387632246926	15.9433681212
Xe	15.0710900108	3.1267902861	11.8105580323
Xe	0.37672446949	4.93560636764	11.4794712519
Xe	-0.672218082402	8.57306283813	14.8147806416
Xe	4.12677545277	6.67674173666	15.7440772471
Xe	2.09890957725	9.78209486323	11.6476635661
Xe	7.30147096285	5.3943159616	11.680996788
Xe	4.98512436329	9.8510456058	14.7279840032
Xe	8.02905893676	7.08594553862	15.137875053
Xe	9.92076490835	10.1800222708	12.825193792
Xe	11.3831510125	5.60624345538	11.3952171398
Xe	12.2316820668	9.29963275925	14.6856010294
Xe	16.3418258037	6.04231270807	15.1749656321
Xe	16.5260091101	9.76647046712	13.2008086575
Xe	-0.670810812563	11.9141290027	12.8413427195
Xe	1.0209522727	14.6132660206	15.0573398237
Xe	3.91056438153	13.4785436225	15.4883996295
Xe	3.60631964286	15.1722336216	12.4639017652
Xe	6.96114582594	12.1510837067	12.629862972
Xe	7.08543307421	14.4709067686	14.6200166163
Xe	8.94764756885	12.2206070355	15.5734949792
Xe	9.8743960273	14.1570464302	13.2782910446
Xe	12.8369521026	11.3176877716	13.0863547345
Xe	12.2444273587	14.9167741431	14.4832223294
Xe	15.9057536555	13.4254517302	15.0166072951
Xe	15.0333623231	15.0787914574	11.967922889
108
Frame: 1; Minimum total energy: -2.71621e-11erg; Total energy at start (perturbed): 5.99944e-09erg; Total energy now: 5.99944e-09erg; Discrepancy from stable energy: 22187.5%
Xe	-0.406480170039	0.723277032169	0.204076872784
Xe	-0.36110230839	2.68779308052	3.39399861138
Xe	2.57210649553	-0.294634754884	1.86678059167
Xe	3.7841937546	3.82942896179	-0.25031267486
Xe	6.48943482695	-1.11034702874	0.294346803897
Xe	6.15842081481	2.81795179971	2.34450643208
Xe	8.68759411417	-0.839075809755	4.23712837408
Xe	8.48076360526	3.89245256056	-0.884882691994
Xe	11.2429555586	-0.899147444819	1.11593369585
Xe	11.6233495201	3.94069683294	2.94996762954
Xe	15.6557884772	-0.921920407699	3.88940189906
Xe	14.9489019493	2.41112785276	0.874759487005
Xe	-0.66521124324	5.76974073677	-0.777995052039
Xe	-0.06430818725	9.97647809005	2.71351626674
Xe	2.04063648993	6.1816200943	3.36662036045
Xe	2.08531346009	8.35992535676	0.368596183097
Xe	7.07540464077	6.08702031692	-0.819967433038
Xe	6.09514903397	8.46539619845	3.43223380134
Xe	9.718989766	5.56014814741	3.36905644481
Xe	8.14224112982	9.89662907506	-0.245609393097
Xe	12.0127204288	5.6382176409	0.512649095651
Xe	13.1907257521	9.33806457324	2.69447698168
Xe	15.0706149614	7.11795588817	2.33670174727
Xe	14.9453144199	8.60930454772	0.716877477707
Xe	0.674487160387	11.7174802355	-0.890637378164
Xe	1.00880407922	14.2598816716	3.5803765373
Xe	4.22575311721	13.0588160439	4.15002193702
Xe	1.89839183757	14.7304524047	-0.842272271507
Xe	7.17269542883	11.6438401199	0.325069354477
Xe	6.6712694845	15.1084041836	2.10538947572
Xe	8.05153859713	12.1981466692	3.85280408372
Xe	8.34678943355	15.903075888	-0.389726026772
Xe	12.9864441857	12.4904350667	0.197515875672
Xe	12.5075105666	14.5732240174	3.08641849054
Xe	14.1755703418	12.9962625046	1.97415738696
Xe	15.4318694995	15.647851142	-0.474122336895
Xe	0.45893558394	0.897766440215	6.99607861385
Xe	0.328649272229	2.54819228137	9.76005844618
Xe	3.86970286605	0.179405741315	10.1173299897
Xe	2.10448532241	2.80517118141	6.97920322275
Xe	6.92982616943	1.03056936616	5.75292115931
Xe	5.00540053472	3.61262142261	8.45037280198
Xe	9.3528521617	-0.080561463596	8.32832472547
Xe	9.49819739387	2.8519468627	5.73048087397
Xe	11.3767894922	0.841844866187	7.06509640149
Xe	13.1986773113	3.88130377467	9.89708966809
Xe	15.6573550949	0.624636121943	9.30876582264
Xe	15.4633679015	3.4842649324	6.06315648755
Xe	-0.658598440442	5.51009910239	4.97946966957
Xe	-0.731106376436	9.25033096453	9.9657944788
Xe	2.94789549906	6.94394107313	9.47654414951
Xe	2.25170095793	9.79776238026	6.14536161629
Xe	6.79946807659	6.49894128624	6.73040764182
Xe	6.58454341335	8.88783335708	9.39800611875
Xe	8.63065794261	6.64508589513	8.69749926696
Xe	8.79501773838	9.8518607107	7.12496549648
Xe	11.4470238119	6.91355391178	5.68197078936
Xe	13.312316568	8.00137950357	10.1536714593
Xe	16.4218977937	5.22757932367	8.49393674772
Xe	15.5156950144	8.4048819653	6.53031316185
Xe	-1.10802999581	12.6742307351	6.13995021114
Xe	-0.893174719766	14.9930377237	10.1008634698
Xe	2.89605417142	12.4170401037	8.02510987061
Xe	3.44864545846	14.6915960337	5.3313085264
Xe	5.35283743596	12.3626728963	7.00539900163
Xe	6.16912844189	16.3797819499	10.2732881497
Xe	9.17629138755	11.3649808797	9.46908245384
Xe	9.50194567833	14.246662944	5.18606263507
Xe	11.4545276061	11.1318859508	7.21899746804
Xe	13.4847665047	14.3211249871	9.97622372531
Xe	16.3626260611	12.4954113701	9.29503035786
Xe	15.0149034997	16.4576881982	5.04090492858
Xe	-0.919178268642	0.986304853692	12.7769841671
Xe	-0.546925041612	3.32096583516	14.1570645348
Xe	4.18783957081	1.16225105128	14.3685200801
Xe	3.98127206296	3.50349758247	12.3220522996
Xe	4.97971412317	-1.08361302109	12.8410465516
Xe	7.18864682621	4.263700836	15.5387905755
Xe	8.81124628585	0.793804390764	14.9605338202
Xe	9.7364918288	3.0666509485	13.1666700147
Xe	13.1806144776	0.926975321879	12.0043620065
Xe	12.8212305981	1.99313869762	16.2641150027
Xe	15.5789293005	0.0387632246926	15.9433681212
Xe	15.0710900108	3.1267902861	11.8105580323
Xe	0.37672446949	4.93560636764	11.4794712519
Xe	-0.672218082403	8.57306283813	14.8147806416
Xe	4.12677545277	6.67674173666	15.7440772471
Xe	2.09890957725	9.78209486323	11.6476635661
Xe	7.30147096285	5.3943159616	11.680996788
Xe	4.98512436329	9.8510456058	14.7279840032
Xe	8.02905893676	7.08594553862	15.137875053
Xe	9.92076490835	10.1800222708	12.825193792
Xe	11.3831510125	5.60624345538	11.3952171398
Xe	12.2316820668	9.29963275925	14.6856010294
Xe	16.3418258037	6.04231270807	15.1749656321
Xe	16.5260091101	9.76647046712	13.2008086575
Xe	-0.670810812564	11.9141290027	12.8413427195
Xe	1.0209522727	14.6132660206	15.0573398237
Xe	3.91056438153	13.4785436225	15.4883996295
Xe	3.60631964286	15.1722336216	12.4639017652
Xe	6.96114582594	12.1510837067	12.629862972
Xe	7.08543307421	14.4709067686	14.6200166163
Xe	8.94764756885	12.2206070355	15.5734949792
Xe	9.8743960273	14.1570464302	13.2782910446
Xe	12.8369521026	11.3176877716	13.0863547345
Xe	12.2444273587	14.9167741431	14.4832223294
Xe	15.9057536555	13.4254517302	15.0166072951
Xe	15.0333623231	15.0787914574	11.967922889
108
Frame: 2; Minimum total energy: -2.71621e-11erg; Total energy at start (perturbed): 5.99944e-09erg; Total energy now: 2.19209e-09erg; Discrepancy from stable energy: 8170.4%
Xe	-0.406478489987	0.723275292576	0.20407372741
Xe	-0.361099194952	2.68777696833	3.39398981366
Xe	2.57211000426	-0.294636076187	1.86678284418
Xe	3.7841906555	3.82942755597	-0.250313615306
Xe	6.48858048175	-1.10975583954	0.29454056613
Xe	6.15842232412	2.81795131372	2.34450779562
Xe	8.68762475176	-0.839110342696	4.23709641221
Xe	8.48151167665	3.89195244599	-0.88406192503
Xe	11.2429577509	-0.899144433915	1.11593335792
Xe	11.6236823766	3.94031272137	2.94992511318
Xe	15.70203044	-0.853984412959	3.78679492783
Xe	14.9488979197	2.41113057003	0.874762048889
Xe	-0.665153800698	5.7697284717	-0.777899129998
Xe	-0.0643112612601	9.97647997266	2.71351924896
Xe	2.04065196572	6.18162280273	3.36661145962
Xe	2.08531679579	8.35992408003	0.36859175377
Xe	7.07515598353	6.08734077735	-0.819722644489
Xe	6.09514867905	8.46539652376	3.43223282141
Xe	9.71855117843	5.56043429428	3.36912406677
Xe	8.14521310716	9.88989931771	-0.24747446748
Xe	12.0127282787	5.63824570874	0.512596849567
Xe	13.1905518175	9.33815925234	2.6946024492
Xe	15.0708765108	7.11552527048	2.33872752247
Xe	14.9452828424	8.61115310988	0.714125608222
Xe	0.674479650593	11.7174618082	-0.890637267978
Xe	1.00875805775	14.2598789136	3.58034537783
Xe	4.22717447534	13.0552635422	4.14755335749
Xe	1.89847239922	14.7304935645	-0.84201802828
Xe	7.16930743085	11.6487539755	0.326924945113
Xe	6.67125811077	15.1083011728	2.10547712178
Xe	8.05148220118	12.1980574842	3.85275312987
Xe	8.34746777522	15.9024812875	-0.39003235449
Xe	12.984513741	12.4896894539	0.194433856311
Xe	12.5071784205	14.5734855597	3.08661153198
Xe	14.1774893674	12.99671714	1.97626540437
Xe	15.4318696249	15.6478460969	-0.474116741502
Xe	0.458545662073	0.897291703314	6.99606965647
Xe	0.328645456357	2.54814027619	9.76003839779
Xe	3.86967614843	0.179427849645	10.1173079702
Xe	2.10480559319	2.80553848648	6.97918843255
Xe	6.92976335023	1.03058614904	5.75294804761
Xe	5.0054090283	3.61262298013	8.45037715877
Xe	9.35245547641	-0.0807278771627	8.32853426658
Xe	9.49818848337	2.85198324816	5.7304664458
Xe	11.3771265926	0.841971901099	7.06487995577
Xe	13.1986114815	3.88129617404	9.89693583579
Xe	15.6573534671	0.624630302811	9.30875940391
Xe	15.463343026	3.48423579042	6.06313971366
Xe	-0.658605228869	5.51011910578	4.97947867644
Xe	-0.73111387759	9.25032266377	9.9657810272
Xe	2.94789648346	6.94393934593	9.47654158781
Xe	2.25169790484	9.79774880977	6.14535275274
Xe	6.79929894245	6.49892802959	6.73021997431
Xe	6.58450808041	8.88784989059	9.39802442259
Xe	8.63081908518	6.64507365467	8.69763783216
Xe	8.79494397027	9.85176795032	7.12483614953
Xe	11.4470357155	6.91356320565	5.68198610378
Xe	13.3123235107	8.0013885867	10.1536665454
Xe	16.4219050941	5.22759475929	8.49395564656
Xe	15.5156941503	8.40488357582	6.53031219921
Xe	-1.10802776272	12.6742304059	6.13993601358
Xe	-0.893110299754	14.9931158569	10.1008689494
Xe	2.89577431011	12.4170560686	8.0252193753
Xe	3.44715104758	14.6943396486	5.3333929055
Xe	5.35306430066	12.3626592855	7.0053201766
Xe	6.16916937578	16.3797468292	10.273230031
Xe	9.17629564559	11.3650486894	9.46918370532
Xe	9.50199699516	14.2467291098	5.18611443755
Xe	11.4545934847	11.1319115677	7.21898441845
Xe	13.4845678158	14.3210409835	9.97596967151
Xe	16.362583431	12.4953099699	9.29500994034
Xe	14.9636166531	16.3701252796	5.11651523833
Xe	-0.919194073371	0.986120665478	12.7768925228
Xe	-0.546894292702	3.32107921024	14.1571597527
Xe	4.18780918119	1.1623080682	14.3685981935
Xe	3.98126954584	3.50351860049	12.3220313146
Xe	4.97994314282	-1.08339246148	12.8411068382
Xe	7.18797148339	4.26368698362	15.5375675986
Xe	8.81123308871	0.793766057953	14.9605574707
Xe	9.73650545438	3.06667364437	13.1666440031
Xe	13.180555193	0.926904311624	12.0043718924
Xe	12.82122063	1.99314358922	16.2641136708
Xe	15.5789334298	0.0387624771743	15.9433600673
Xe	15.0712157631	3.12681473602	11.8106428592
Xe	0.376730305689	4.93566389755	11.4794949932
Xe	-0.6714735126	8.57231271318	14.8156932073
Xe	4.12676694725	6.67673640216	15.7440744463
Xe	2.09892009372	9.78209732714	11.6476698177
Xe	7.30146684179	5.39431555355	11.6809986454
Xe	4.98512504788	9.85104898411	14.7279831065
Xe	8.02912212745	7.08604327165	15.1377331406
Xe	9.92071229557	10.1800140442	12.8251682287
Xe	11.3830945772	5.60627914727	11.3952564982
Xe	12.2316411848	9.29937867056	14.6857799393
Xe	16.3417123906	6.04225632977	15.1748592933
Xe	16.5248593402	9.76652260637	13.199767769
Xe	-0.670503033891	11.9146194181	12.8412395782
Xe	1.02082509563	14.6132691641	15.0570215957
Xe	3.91059722079	13.4785167465	15.488390968
Xe	3.60607166617	15.171829884	12.4638367496
Xe	6.96113460826	12.1510515038	12.6298279343
Xe	7.08538442038	14.4709646565	14.620039765
Xe	8.9476644513	12.2205637538	15.5735254447
Xe	9.87427846676	14.1570188966	13.2781830088
Xe	12.8370408329	11.3178919589	13.086169289
Xe	12.2445451127	14.9168185231	14.4832899032
Xe	15.9057404162	13.4254564105	15.0166215194
Xe	15.033495605	15.0788815776	11.9681424049
108
Frame: 3; Minimum total energy: -2.71621e-11erg; Total energy at start (perturbed): 5.99944e-09erg; Total energy now: 1.50718e-09erg; Discrepancy from stable energy: 5648.84%
Xe	-0.406471191247	0.723267853099	0.204060058426
Xe	-0.361085591396	2.68770790911	3.39395191828
Xe	2.57212509473	-0.294641761846	1.86679254351
Xe	3.78417731376	3.82942150251	-0.250317663768
Xe	6.48494230514	-1.1072351999	0.295362811336
Xe	6.15842881922	2.81794922203	2.34451366847
Xe	8.68775657785	-0.839258914164	4.23695888337
Xe	8.48469377627	3.8898181761	-0.880576891582
Xe	11.2429671895	-0.899131456725	1.11593189498
Xe	11.6251077232	3.93866727703	2.9497437802
Xe	15.7330141108	-0.808001130706	3.71983033516
Xe	14.9488805434	2.41114239988	0.87477293189
Xe	-0.664906799395	5.76967572392	-0.777486654015
Xe	-0.0643245019669	9.97648807291	2.71353208557
Xe	2.04071858377	6.18163445933	3.36657314504
Xe	2.08533115709	8.35991858463	0.36857268594
Xe	7.07409115048	6.08871071527	-0.818673499087
Xe	6.09514715079	8.46539792775	3.43222859699
Xe	9.71667281265	5.56165953722	3.3694131759
Xe	8.15695378065	9.86334942662	-0.25483808767
Xe	12.0127620227	5.63836646606	0.512372149914
Xe	13.1898097858	9.33856284666	2.6951382945
Xe	15.0719648183	7.10544787979	2.34712554846
Xe	14.9451646933	8.61881122526	0.702705832094
Xe	0.674447331333	11.7173825149	-0.89063680243
Xe	1.00856071234	14.2598668439	3.58021139458
Xe	4.23299315878	13.0407252396	4.13744332287
Xe	1.89881805697	14.7306704955	-0.840926608508
Xe	7.15593350483	11.6681773289	0.33425182168
Xe	6.67120936365	15.10785889	2.10585347378
Xe	8.05123974583	12.1976739011	3.8525340798
Xe	8.35035718955	15.8999494877	-0.391337777351
Xe	12.9765202938	12.4866038515	0.181678768357
Xe	12.5057493536	14.5746074223	3.08743732675
Xe	14.1854814935	12.9985504623	1.98496645758
Xe	15.4318701508	15.6478243455	-0.474092697434
Xe	0.456876765225	0.895259500117	6.99603089698
Xe	0.328629067095	2.54791649902	9.75995209074
Xe	3.86956116025	0.17952298382	10.1172132085
Xe	2.10617632202	2.80711071798	6.97912468806
Xe	6.92949301222	1.03065834255	5.75306374082
Xe	5.00544565108	3.61262969948	8.4503959485
Xe	9.35075566456	-0.0814409940041	8.32943224901
Xe	9.49815011747	2.85213984475	5.73040436217
Xe	11.3785716507	0.842515732387	7.06395278172
Xe	13.1983286006	3.88126331091	9.8962742956
Xe	15.6573464471	0.624605255125	9.30873179369
Xe	15.4632359556	3.48411037467	6.06306752235
Xe	-0.658634437933	5.51020519572	4.97951746043
Xe	-0.731146129327	9.25028691503	9.96572305332
Xe	2.94790072151	6.94393191052	9.47653055907
Xe	2.25168476729	9.79769039442	6.14531460028
Xe	6.79857246834	6.49887106875	6.72941388198
Xe	6.58435602822	8.8879210204	9.39810318702
Xe	8.63151141711	6.64502087038	8.69823292229
Xe	8.7946267086	9.85136911739	7.12427998829
Xe	11.4470869536	6.91360318941	5.68205200413
Xe	13.3123533956	8.00142768466	10.1536453927
Xe	16.4219365147	5.22766119458	8.49403698563
Xe	15.5156904305	8.40489051229	6.53030805779
Xe	-1.10801809838	12.6742288837	6.13987492409
Xe	-0.892833169225	14.9934519067	10.1008924333
Xe	2.89457277153	12.4171246905	8.02568963583
Xe	3.44103919472	14.7055818313	5.34193376763
Xe	5.35403818467	12.3626011249	7.00498155617
Xe	6.16934549308	16.3795956681	10.2729799537
Xe	9.17631391573	11.3653402489	9.46961902564
Xe	9.50221768447	14.2470136434	5.1863372569
Xe	11.4548768861	11.1320217663	7.21892827358
Xe	13.4837149801	14.3206804744	9.97487926079
Xe	16.3624000537	12.4948738686	9.29492215847
Xe	14.9297333471	16.312810731	5.16788190968
Xe	-0.919261942768	0.985329014987	12.7764986986
Xe	-0.546762081635	3.32156626593	14.1575690339
Xe	4.18767826075	1.16255361686	14.3689345354
Xe	3.9812587104	3.5036090688	12.321940982
Xe	4.98092554188	-1.08244848717	12.8413650287
Xe	7.18510351164	4.26362046276	15.5323717377
Xe	8.81117629408	0.793601092558	14.9606592537
Xe	9.73656410344	3.06677129441	13.1665320609
Xe	13.1803001721	0.926598872444	12.0044144117
Xe	12.8211777208	1.9931646454	16.2641079401
Xe	15.5789512066	0.0387592591	15.9433254069
Xe	15.0717564394	3.12692004661	11.8110075448
Xe	0.376755425156	4.93591145548	11.4795971223
Xe	-0.66831267455	8.56913917199	14.8195621626
Xe	4.12673031328	6.67671344389	15.7440623799
Xe	2.09896535901	9.78210793211	11.647696732
Xe	7.30144909573	5.39431379852	11.6810066287
Xe	4.98512799484	9.85106352598	14.7279792472
Xe	8.02939386636	7.08646339084	15.1371232723
Xe	9.92048602457	10.1799786261	12.8250582763
Xe	11.3828517589	5.60643271482	11.3954258635
Xe	12.2314659202	9.29828799084	14.686548051
Xe	16.3412240246	6.04201309773	15.1744021006
Xe	16.5199671008	9.76671446144	13.1953588131
Xe	-0.669183447538	11.9167197376	12.8407987476
Xe	1.02027897851	14.6132827793	15.0556557995
Xe	3.91073844328	13.4784011158	15.4883537447
Xe	3.60500839826	15.1700989643	12.4635578321
Xe	6.96108631216	12.1509129318	12.6296771559
Xe	7.08517501682	14.4712137665	14.6201393981
Xe	8.94773697875	12.2203773738	15.5736568652
Xe	9.8737733039	14.1569006109	13.2777183546
Xe	12.8374218695	11.3187684763	13.0853733387
Xe	12.2450513126	14.9170093172	14.4835804222
Xe	15.9056834169	13.4254765303	15.0166827621
Xe	15.0340673116	15.07926844	11.9690847598
108
Frame: 4; Minimum total energy: -2.71621e-11erg; Total energy at start (perturbed): 5.99944e-09erg; Total energy now: 9.65554e-10erg; Discrepancy from stable energy: 3654.78%
Xe	-0.40644194194	0.723238534605	0.204005268543
Xe	-0.361030899428	2.68743509818	3.39380161153
Xe	2.57218488084	-0.294664296291	1.86683106426
Xe	3.78412437735	3.82939746341	-0.250333731367
Xe	6.47115709334	-1.09763367616	0.298431031631
Xe	6.15845455199	2.81794093062	2.3445370213
Xe	8.68827853707	-0.83984688144	4.23641426705
Xe	8.49669718933	3.88165644602	-0.867531912424
Xe	11.2430046875	-0.899079728035	1.11592605001
Xe	11.6306365739	3.93227431216	2.94905264388
Xe	15.7737210399	-0.747266254458	3.63305281758
Xe	14.9488114845	2.41118983835	0.874815551544
Xe	-0.663931546249	5.76946733418	-0.775857832765
Xe	-0.0643771519943	9.97652013872	2.7135829848
Xe	2.04098285995	6.18168067341	3.36642116481
Xe	2.08538816498	8.3598967933	0.368497027371
Xe	7.06995959217	6.09398663768	-0.814588051322
Xe	6.09514107993	8.46540355579	3.43221173615
Xe	9.70938227739	5.56641077439	3.3705269111
Xe	8.19031134697	9.78829985943	-0.275710514578
Xe	12.0128950665	5.63884439347	0.511484219162
Xe	13.1869746311	9.34009979745	2.69719479571
Xe	15.0757236073	7.07118909677	2.37565546382
Xe	14.9449547452	8.64474975565	0.663726130752
Xe	0.674319258316	11.7170684766	-0.890635104323
Xe	1.00779023451	14.2598158654	3.57968246445
Xe	4.25181707576	12.993746936	4.10466594499
Xe	1.90017014234	14.731368151	-0.836647924037
Xe	7.11804347988	11.723484527	0.355027556192
Xe	6.67101955004	15.1061236648	2.1073306656
Xe	8.05028316433	12.1961578421	3.85166995423
Xe	8.36131718313	15.890360896	-0.396299586057
Xe	12.9494846221	12.4761934844	0.138632826075
Xe	12.500113822	14.5789977728	3.09064563454
Xe	14.2132067502	13.0040086237	2.01397420063
Xe	15.4318720003	15.6477376975	-0.473997303146
Xe	0.450416429525	0.887387979309	6.9958737778
Xe	0.328564661421	2.54703027657	9.75960961368
Xe	3.86910538782	0.179899779426	10.1168377213
Xe	2.11148132768	2.8131989758	6.97887053191
Xe	6.92842192872	1.0309438558	5.75352180015
Xe	5.00559196669	3.61265660587	8.45047108594
Xe	9.34414328743	-0.0842155112722	8.33292697183
Xe	9.49799779132	2.8527605142	5.73015850183
Xe	11.3842027684	0.844622526156	7.06035101274
Xe	13.1972148348	3.88113047969	9.89366116982
Xe	15.657318399	0.624505908774	9.30862237446
Xe	15.4628113573	3.48361312997	6.06278140331
Xe	-0.658750078288	5.51054645202	4.97967154734
Xe	-0.731273417347	9.25014481234	9.96549191632
Xe	2.94791754278	6.94390240796	9.47648678405
Xe	2.25163274321	9.79745868354	6.1451632875
Xe	6.79571756234	6.49864688152	6.72624587575
Xe	6.583753605	8.88820248036	9.39841517064
Xe	8.6342352628	6.64480990816	8.7005701115
Xe	8.79337300821	9.8497949559	7.12208452325
Xe	11.4472901531	6.91376140674	5.6823130328
Xe	13.312471928	8.0015827458	10.1535614793
Xe	16.4220610673	5.22792456422	8.49435941491
Xe	15.5156756688	8.40491806764	6.53029167123
Xe	-1.10797959595	12.6742225391	6.13963263252
Xe	-0.891736743033	14.9947801094	10.1009838803
Xe	2.88985997253	12.4173952043	8.02753618483
Xe	3.42135110178	14.7420994936	5.369678919
Xe	5.35785622748	12.3623773248	7.00365032263
Xe	6.17004261514	16.3789963949	10.2719896953
Xe	9.17638537425	11.3664910755	9.47133684346
Xe	9.503089401	14.2481374431	5.18721819184
Xe	11.4559979278	11.1324575842	7.2187060751
Xe	13.4803732258	14.3192688457	9.97060804497
Xe	16.361674911	12.4931504805	9.294575897
Xe	14.8855571504	16.2384357065	5.23588155645
Xe	-0.9195283778	0.982209277888	12.7749478713
Xe	-0.546240196962	3.3234816405	14.1591824248
Xe	4.18715716251	1.16352953547	14.3702702891
Xe	3.98121572592	3.50396782572	12.3215826516
Xe	4.98476458641	-1.07879562825	12.8423669816
Xe	7.17436104204	4.26324651746	15.512874143
Xe	8.81095124265	0.792947447946	14.9610625908
Xe	9.73679668035	3.06715784421	13.1660884927
Xe	13.179291584	0.925391255393	12.0045824795
Xe	12.8210074738	1.99324818394	16.2640852071
Xe	15.579021736	0.0387465014911	15.9431878963
Xe	15.0738902886	3.12733885193	11.8124463077
Xe	0.376855013564	4.93689197736	11.4800010798
Xe	-0.656487679232	8.55744297749	14.8339539094
Xe	4.12658464169	6.6766224537	15.7440143501
Xe	2.0991448453	9.78214997865	11.6478035533
Xe	7.30137859095	5.39430686214	11.6810380898
Xe	4.98513968549	9.85112120143	14.7279639504
Xe	8.03046711647	7.08811995664	15.1347212361
Xe	9.91959198875	10.1798380322	12.824623621
Xe	11.381890512	5.60704064003	11.3960967064
Xe	12.230782789	9.29401349314	14.6895606985
Xe	16.3392840868	6.04103920539	15.1725979606
Xe	16.5014860694	9.76696203192	13.1790219114
Xe	-0.664038702986	11.9248701123	12.8391026509
Xe	1.01813518182	14.6133381951	15.0503064908
Xe	3.91129628761	13.4779434618	15.4882071288
Xe	3.6008609286	15.1633508123	12.4624674036
Xe	6.96089459313	12.1503640944	12.6290798305
Xe	7.08434492948	14.4722006285	14.6205343894
Xe	8.9480224036	12.2196370946	15.5741823941
Xe	9.87178458097	14.1564354112	13.2758819799
Xe	12.8389178929	11.3222043177	13.0822552312
Xe	12.2470476105	14.9177619791	14.4847267073
Xe	15.9054571583	13.4255558746	15.0169258968
Xe	15.0363010061	15.0807849384	11.9727793589
108
Frame: 5; Minimum total energy: -2.71621e-11erg; Total energy at start (perturbed): 5.99944e-09erg; Total energy now: 5.76023e-10erg; Discrepancy from stable energy: 2220.69%
Xe	-0.406334583998	0.723134424017	0.203804058222
Xe	-0.360829694391	2.68646237254	3.39326238919
Xe	2.57239897368	-0.294745056154	1.8669701488
Xe	3.78393394757	3.8293107029	-0.250391599571
Xe	6.42945116108	-1.06796996324	0.307133012211
Xe	6.15854660231	2.81791121714	2.34462172598
Xe	8.69014072842	-0.841940328832	4.23447013974
Xe	8.53252732782	3.856052084	-0.829733495277
Xe	11.243140285	-0.898890370198	1.11590458274
Xe	11.6488595882	3.91106428283	2.94693712078
Xe	15.8128051858	-0.68862523432	3.55092897845
Xe	14.9485623536	2.41136371233	0.874965070651
Xe	-0.660490330474	5.76873033386	-0.770107705184
Xe	-0.0645679273278	9.97663460132	2.71376567645
Xe	2.041932889	6.18184642327	3.36587504661
Xe	2.08559361081	8.35981858185	0.368224823401
Xe	7.05630635075	6.11092365582	-0.800890840251
Xe	6.09511910114	8.46542447542	3.43214977817
Xe	9.68529182069	5.58205157399	3.37409499854
Xe	8.23888160205	9.68042131965	-0.305867459387
Xe	12.0133617831	5.64054627794	0.508340666053
Xe	13.1780375453	9.34489058533	2.70377267245
Xe	15.0843885369	6.99714700648	2.43696411472
Xe	14.9462420948	8.69981757912	0.578041341692
Xe	0.673860802911	11.7159469117	-0.890631091901
Xe	1.0051680328	14.2595993833	3.57781632611
Xe	4.28740962903	12.9050334074	4.04189626707
Xe	1.90477008886	14.7338179793	-0.821962378066
Xe	7.06323146063	11.8044235121	0.385061627019
Xe	6.67038395672	15.1001461746	2.11242650344
Xe	8.04691542945	12.1907871313	3.84862761579
Xe	8.39461022147	15.8614102892	-0.411500538028
Xe	12.8919269207	12.4542488802	0.0477032576651
Xe	12.4805475462	14.5938842352	3.1012720515
Xe	14.2786758894	13.0087617596	2.07176272841
Xe	15.4318757659	15.6474221887	-0.473653015424
Xe	0.429285667371	0.861577399615	6.99526593576
Xe	0.328341566395	2.54386602558	9.75837765548
Xe	3.86747255309	0.181245727332	10.1154941405
Xe	2.12881488735	2.83313861388	6.97794019188
Xe	6.92459086392	1.03195774444	5.75515569259
Xe	5.00613252818	3.61275685415	8.45074965411
Xe	9.32211193434	-0.0934657151949	8.34459086343
Xe	9.49744862385	2.85498369051	5.72928078822
Xe	11.4030957762	0.851523908273	7.04841761731
Xe	13.1933286246	3.88061895037	9.88442475621
Xe	15.6572147914	0.624149032518	9.30823021055
Xe	15.4612871453	3.48182923319	6.06175668793
Xe	-0.659162649152	5.51176966943	4.98022854394
Xe	-0.731721956422	9.249630084	9.96464563287
Xe	2.94797813632	6.94379626756	9.47632908663
Xe	2.25144713739	9.79662622089	6.14461984218
Xe	6.78582738324	6.49786547235	6.71526804626
Xe	6.5815989728	8.88920418962	9.39952995308
Xe	8.64371440763	6.64403036392	8.70864721534
Xe	8.78893495164	9.844248501	7.11434395386
Xe	11.4480196487	6.91432456407	5.68324572341
Xe	13.3128977042	8.00213954637	10.1532598374
Xe	16.4225074621	5.22886872801	8.49551499506
Xe	15.5156225302	8.40501760189	6.53023329099
Xe	-1.10784030319	12.6741982817	6.13876163614
Xe	-0.887836911335	14.9994855724	10.1012887025
Xe	2.87365357899	12.4183450011	8.03391467259
Xe	3.38480874371	14.8123117205	5.42310963031
Xe	5.37097229483	12.3616512228	6.99904560945
Xe	6.17252702617	16.3768477035	10.2684551863
Xe	9.17662802383	11.3705469268	9.47738449406
Xe	9.50616981981	14.2521075664	5.19034287994
Xe	11.4599823206	11.1340051584	7.21791482872
Xe	13.4689250179	14.3144465025	9.95599617699
Xe	16.3591009544	12.4870484942	9.29335911235
Xe	14.8435527794	16.1679997269	5.30180448886
Xe	-0.92044715427	0.971282969338	12.7695325978
Xe	-0.544400064282	3.33013337992	14.1648398219
Xe	4.18526006332	1.16706194699	14.3750917473
Xe	3.98106120454	3.50525556257	12.3202948509
Xe	4.9977874142	-1.06689447245	12.8456692841
Xe	7.14312959369	4.26069881444	15.4558186364
Xe	8.81014586152	0.790608735194	14.9625062142
Xe	9.73763140215	3.0685356484	13.1645012947
Xe	13.1757094709	0.921107488257	12.0051781314
Xe	12.8203950636	1.99354863422	16.2640034127
Xe	15.5792753629	0.0387007815652	15.9426931116