108
Frame: 0; Minimum total energy: -2.71621e-11erg; Total energy at start (perturbed): 1.15897e-09erg; Total energy now: 1.15897e-09erg; Discrepancy from stable energy: 4366.87%
Xe	0.912536330035	0.866468948043	-0.373077262334
Xe	0.760876712733	3.6824136335	2.64039129816
Xe	3.45160141927	0.901747549952	2.86264691808
Xe	2.20971624164	3.61620190202	-0.852778501573
Xe	5.68271001283	0.0342229786761	0.204852284641
Xe	7.20476057754	3.3284433158	2.97508889257
Xe	8.16792493795	0.0268797516398	2.52657261132
Xe	9.34478215944	1.93764208758	-0.289469860916
Xe	12.5433266464	-0.524174440189	-0.431243990381
Xe	12.6787292447	3.81601562955	2.53428183576
Xe	15.5171319136	0.31918844845	3.17677550651
Xe	15.7879212542	3.10556017315	0.747409134683
Xe	1.22232170537	5.57950806081	-0.486925899443
Xe	0.79330882141	8.08406358806	3.73160993743
Xe	3.24037049454	6.77783865909	3.647307681
Xe	3.89992291766	9.12869132824	0.423470543027
Xe	6.43435863482	6.0943344729	0.759604301469
Xe	6.15955485258	9.62959424217	2.54257503313
Xe	8.96786536547	5.36148491095	3.11852920112
Xe	8.47122041709	10.2601910986	1.03188554729
Xe	12.9144843525	7.08179397911	0.35007881038
Xe	13.313382561	9.21735182562	4.06995418797
Xe	14.8073165488	6.42533859449	3.91705574262
Xe	14.9961358048	8.55139064428	-0.571545384949
Xe	-0.677838387197	12.0335074605	-0.730532793109
Xe	-0.430067947052	16.5018320566	3.72010204121
Xe	2.28463177279	11.9228880015	2.30033633665
Xe	3.21858233014	14.8065623285	0.66344398077
Xe	4.93697869144	12.2932014537	0.906822075066
Xe	5.70196577689	15.3353556715	1.89391755852
Xe	8.31411609206	13.216669761	2.79168734288
Xe	8.20465563635	14.7972818222	-0.236704269149
Xe	11.235562876	13.4189992387	-0.972509998103
Xe	12.3240991509	15.347056463	3.79212621095
Xe	16.1117241228	13.1824828654	3.18938279854
Xe	15.3682046679	14.3664509703	0.6708017965
Xe	0.0365115679073	-0.396492677057	7.18886254062
Xe	-0.182170275027	4.09137353098	9.96596161116
Xe	3.14530638728	0.907090605318	8.94878572868
Xe	3.94400565627	3.91587332539	5.03340780898
Xe	5.4388018647	-1.10318272096	6.42395245361
Xe	5.95293019271	2.15918815487	8.72209505511
Xe	10.0125940373	-1.06205912631	8.01044233257
Xe	10.2611016954	2.02706034188	6.0286627459
Xe	13.3374180734	0.888805042304	5.16205608925
Xe	13.0017829536	3.19503862212	9.93343745073
Xe	15.0213960907	-0.76594583575	8.70265798985
Xe	14.3551188428	3.44027875445	7.10363632244
Xe	-0.968657235515	6.4881746613	6.12113828601
Xe	0.289483233717	9.32086083217	9.56451964514
Xe	4.01952254043	6.77993556009	8.16971453352
Xe	4.20780290267	9.19409061609	7.32004708235
Xe	5.67279116804	4.96094279804	7.00239197128
Xe	6.60101640255	9.5409003834	9.45236200444
Xe	9.11497161096	6.56595287529	8.4632729042
Xe	8.23901292432	10.2850791593	5.57533145208
Xe	13.0612242934	6.33469265563	5.21013432967
Xe	13.3268572055	9.98599289494	8.77633129024
Xe	14.7899611879	5.39540422364	9.10435131807
Xe	15.7500778565	8.69647114767	6.70579961998
Xe	-0.918597992669	13.3261342734	6.22455029538
Xe	-0.905803715874	16.1217302902	10.2422670675
Xe	2.96857544394	11.5177046657	9.46189937206
Xe	3.31035409474	16.0440644853	5.18873756441
Xe	6.87578397809	12.2408132214	7.09139100512
Xe	6.31488115443	15.2030332604	9.78435900358
Xe	8.57184767019	11.1432053999	8.54240097825
Xe	9.11945521118	15.4352952744	7.20292370766
Xe	11.7051261765	12.5178070236	5.64645557652
Xe	11.170572392	15.5241535242	10.2736385498
Xe	15.4191091518	13.1098514014	9.82492058147
Xe	15.9093200992	15.851868196	6.00870586334
Xe	-0.528710606675	1.16624167651	11.9289482641
Xe	0.857927339294	3.47555348575	15.9392859622
Xe	2.04671672622	-0.275956222061	15.1421677091
Xe	2.6216308593	1.88258836269	12.6903784144
Xe	6.85313323642	-0.45974976089	13.2197575944
Xe	6.33263443057	2.93961127667	16.0314930919
Xe	10.2964771833	0.787515213179	16.3944163845
Xe	8.86817087311	3.70118117843	11.4023756175
Xe	11.8841044584	0.982809962007	11.8903592079
Xe	11.1608844391	3.9068337127	15.5816280173
Xe	15.1697014705	0.237444274291	14.2627934201
Xe	15.24860676	3.26709908491	11.7680653256
Xe	-0.67490405565	5.71701355379	12.0163695849
Xe	0.36269684723	9.1338834358	15.6554815041
Xe	3.76630508718	6.81043875628	15.1815726466
Xe	3.10571070212	8.23197306414	11.8156595427
Xe	6.64124377236	4.91871004821	11.0686542423
Xe	5.95547367755	8.004200976	14.1721905161
Xe	9.71635724829	6.21869127993	15.361288334
Xe	9.15391093097	9.62483609228	12.7739796444
Xe	12.8006720545	5.60750545618	13.0685653659
Xe	11.9333204356	9.22204658973	14.7472264878
Xe	14.4815766719	5.65581770693	16.5149040779
Xe	14.7680093279	9.49088596946	12.3524884905
Xe	-1.21821277081	11.2678399484	13.2924525195
Xe	-0.685228776647	14.7409746506	14.1164712768
Xe	3.31556888321	11.818101447	15.8197569015
Xe	2.54315773809	16.016844733	12.9272238374
Xe	6.70132715893	12.4938940138	12.8377646469
Xe	5.12795840745	15.2207840578	15.4942288707
Xe	9.33758409353	12.9743546038	14.140584886
Xe	9.78640408058	15.712733368	13.2519164653
Xe	13.1195589546	12.7367465101	11.3451955118
Xe	11.7206053515	14.3304469781	14.6602825134
Xe	15.1995186333	13.3097921179	15.2107742125
Xe	15.6080377875	14.7332148702	12.0373871529
108
Frame: 1; Minimum total energy: -2.71621e-11erg; Total energy at start (perturbed): 1.15897e-09erg; Total energy now: 7.23472e-10erg; Discrepancy from stable energy: 2763.54%
Xe	0.912165446069	0.865705676826	-0.372662677803
Xe	0.760838508607	3.68240160305	2.6404562683
Xe	3.45156294297	0.90172401233	2.8626733202
Xe	2.2910727512	3.57554512892	-0.79010622759
Xe	5.6826163562	0.0342681367364	0.204631298496
Xe	7.20195199757	3.32520271441	2.97496882733
Xe	8.1680504962	0.0267192693622	2.52671086505
Xe	9.32800082656	1.95571004042	-0.264061726787
Xe	12.5438631307	-0.524535365426	-0.430860052164
Xe	12.6786392958	3.81593513659	2.53424447946
Xe	15.5175634039	0.31911852733	3.1761055201
Xe	15.7879529336	3.10556522465	0.747352483035
Xe	1.2000682096	5.61686886192	-0.477798706753
Xe	0.790743703394	8.08532549279	3.73157719494
Xe	3.24236392633	6.77675981765	3.64713386025
Xe	3.89947917679	9.12839263904	0.423053631895
Xe	6.43428381656	6.09436921864	0.759490450667
Xe	6.1580859615	9.62906818246	2.543953222
Xe	8.97025672729	5.36412352887	3.11883628178
Xe	8.47269977317	10.2605101423	1.03067164704
Xe	12.9109984503	7.07999236616	0.351707521995
Xe	13.3131792904	9.21815532939	4.06971391201
Xe	14.8534663569	6.42854908452	3.87387573557
Xe	14.9987001768	8.55351654812	-0.572665902851
Xe	-0.677786071269	12.0334797074	-0.730514678129
Xe	-0.429628758907	16.5018001033	3.7197058076
Xe	2.28373790165	11.9226958873	2.30079186909
Xe	3.21605874862	14.806814527	0.662370913496
Xe	4.93793489316	12.2926730124	0.906336440628
Xe	5.70339787401	15.3359700054	1.89501470807
Xe	8.31420748646	13.2166405434	2.79190017328
Xe	8.20465454118	14.7973757164	-0.236967175901
Xe	11.2355099864	13.4185639016	-0.971537011126
Xe	12.3241175486	15.3471570589	3.79204518293
Xe	16.112033123	13.1817510877	3.19038345102
Xe	15.3677425168	14.3671327203	0.669250545805
Xe	0.0365943385828	-0.396406313515	7.18884920705
Xe	-0.181198373483	4.08840694014	9.96191380068
Xe	3.14466163346	0.906834212103	8.94883936238
Xe	3.94265973719	3.91479954902	5.03193443642
Xe	5.44080615673	-1.10195283255	6.42515680959
Xe	5.95346057833	2.15917020268	8.72214665594
Xe	10.0290995725	-1.02970037459	8.02530683284
Xe	10.2609341576	2.02715389568	6.02867813037
Xe	13.3367664549	0.888762459377	5.16245998515
Xe	12.9997318719	3.19432941978	9.9328247886
Xe	15.0210695503	-0.765723775491	8.70268617033
Xe	14.3550955733	3.43887367981	7.10169765094
Xe	-0.967535453334	6.48632259693	6.12093129366
Xe	0.289352383603	9.32078733577	9.56450462197
Xe	4.01678933911	6.77383764341	8.17353268971
Xe	4.20820429667	9.20002340555	7.31716648195
Xe	5.67589602903	4.95937442706	7.00205961952
Xe	6.59812363246	9.53842249707	9.45388771389
Xe	9.11499428805	6.56595769004	8.46325576928
Xe	8.23992334701	10.2833327676	5.57354794614
Xe	12.9999978858	6.33231921342	5.24598827344
Xe	13.3267353238	9.98599876158	8.77635771314
Xe	14.790863397	5.39753694179	9.10521010425
Xe	15.7489352641	8.69787293503	6.70620861853
Xe	-0.918003482519	13.325161228	6.22481201023
Xe	-0.904898202075	16.1221210305	10.2416301644
Xe	2.96859430815	11.5178916911	9.4619882436
Xe	3.30787006942	16.0426880083	5.18739669129
Xe	6.86619657654	12.2468974884	7.08523450011
Xe	6.31485992108	15.2030363544	9.78438279309
Xe	8.58142199928	11.1402506182	8.54764184761
Xe	9.10126448423	15.3922832951	7.1865997815
Xe	11.705105273	12.5176927927	5.64652837944
Xe	11.1708532256	15.5238544854	10.2737470177
Xe	15.4207973221	13.1082897407	9.82073690456
Xe	15.9083774117	15.8523664751	6.00877459573
Xe	-0.52879267727	1.1660102436	11.9289287944
Xe	0.781821386865	3.46896293526	15.8456351545
Xe	2.04667100297	-0.275832864878	15.1424794366
Xe	2.62186673622	1.8827811361	12.6902517202
Xe	6.85309605762	-0.459710718565	13.2197472575
Xe	6.33260904394	2.9396316059	16.0314616509
Xe	10.3110467923	0.766840189378	16.3613567092
Xe	8.87406239735	3.69729843942	11.4034572234
Xe	11.8839310903	0.98245292028	11.8906211288
Xe	11.1624679693	3.9038779659	15.5819118606
Xe	15.1696670371	0.237415621324	14.2628358465
Xe	15.2493569743	3.26704070947	11.7689998215
Xe	-0.675646982951	5.71966911394	12.0195502639
Xe	0.362731372701	9.13378021426	15.6555008115
Xe	3.76265187662	6.80856377119	15.183044586
Xe	3.10568619124	8.23197666711	11.815618519
Xe	6.63352815955	4.92220983636	11.0677647772
Xe	5.95838092451	8.00588466403	14.17067956
Xe	9.71451372386	6.2210694502	15.3610822362
Xe	9.15382349412	9.62477108739	12.7738595742
Xe	12.800689199	5.60759883081	13.068450344
Xe	11.9334044998	9.22206028499	14.7473247076
Xe	14.481866196	5.65515579335	16.5142339704
Xe	14.7676292152	9.49054697948	12.3523312557
Xe	-1.21782308367	11.2679803254	13.2924457994
Xe	-0.684066230336	14.7413040131	14.1170177024
Xe	3.31555575072	11.8180887184	15.8197276115
Xe	2.54327178037	16.0164112453	12.9266920476
Xe	6.70029030496	12.4937491322	12.8373017162
Xe	5.12798530179	15.2207830972	15.4942520479
Xe	9.33579628673	12.9718378039	14.1409765908
Xe	9.78438898453	15.7151733335	13.2501898226
Xe	13.116959623	12.736208063	11.3464659947
Xe	11.7243899711	14.3304789368	14.6608220372
Xe	15.1988627659	13.3095167692	15.2111180394
Xe	15.6067608476	14.7344769291	12.0392646365
108
Frame: 2; Minimum total energy: -2.71621e-11erg; Total energy at start (perturbed): 1.15897e-09erg; Total energy now: 4.47217e-10erg; Discrepancy from stable energy: 1746.48%
Xe	0.910818993766	0.863229896478	-0.371381480195
Xe	0.760703818768	3.68236467383	2.64067768258
Xe	3.45143415043	0.901643551197	2.862761771
Xe	2.38710163584	3.49484834871	-0.736509563963
Xe	5.68230186341	0.0344187253251	0.203891110254
Xe	7.19288896744	3.31476471376	2.97458883856
Xe	8.16846808621	0.026166607339	2.52718385115
Xe	9.29177620699	1.99494217952	-0.208848667238
Xe	12.5456632416	-0.525732347268	-0.42953751856
Xe	12.6783461519	3.81568302338	2.53413494839
Xe	15.5189966496	0.318887878136	3.17387395437
Xe	15.7880591584	3.10558203425	0.747162131791
Xe	1.15759502215	5.68452392267	-0.463641955568
Xe	0.782361732779	8.08946177883	3.73145704161
Xe	3.2488809648	6.77325419866	3.64655302947
Xe	3.89799464159	9.12739306385	0.421657580582
Xe	6.43403494149	6.09448398597	0.759111337639
Xe	6.15327384985	9.62733123195	2.54851095099
Xe	8.97797681367	5.37263569596	3.11983248059
Xe	8.47756870418	10.2615525181	1.02667191056
Xe	12.8997136536	7.07420197045	0.356996874827
Xe	13.3125633987	9.22058694942	4.06896549358
Xe	14.9250608496	6.43278680091	3.80760638438
Xe	15.0069873152	8.56040436237	-0.576272461657
Xe	-0.677610735935	12.0333867862	-0.730453819869
Xe	-0.42816138332	16.5016908001	3.71838406857
Xe	2.28076713157	11.92205611	2.30230739134
Xe	3.20776299061	14.8076657777	0.658842689556
Xe	4.94110933913	12.2909309803	0.904719353848
Xe	5.70808145217	15.3379959301	1.89863028299
Xe	8.3145146253	13.2165411786	2.79261293511
Xe	8.20465071348	14.7976900433	-0.237848474954
Xe	11.2353307819	13.4171106513	-0.968293381476
Xe	12.3241791514	15.3474939244	3.79177370215
Xe	16.1130490796	13.179329211	3.19367912656
Xe	15.3662123192	14.3693893547	0.664124266467
Xe	0.0368711508762	-0.396117037843	7.18880357656
Xe	-0.178074595816	4.07892339329	9.94894728638
Xe	3.14251129696	0.905979401434	8.94901829651
Xe	3.93821446012	3.9112415819	5.02708720557
Xe	5.44734282638	-1.09794323912	6.42908102706
Xe	5.95523059789	2.15910161146	8.72232363819
Xe	10.0621688452	-0.963751843644	8.05479666345
Xe	10.260371516	2.02747883643	6.02871997483
Xe	13.3345970423	0.888609992028	5.16379802899
Xe	12.9929595884	3.19200428085	9.93078673563
Xe	15.0199762221	-0.764979738496	8.70278278217
Xe	14.3550366747	3.43427647524	7.09532679152
Xe	-0.963840775682	6.48022217253	6.12027801941
Xe	0.288914095606	9.3205411872	9.56445419141
Xe	4.00777293738	6.75519764633	8.18575633821
Xe	4.20942427284	9.21852530445	7.30805669042
Xe	5.68619138094	4.95420202723	7.00091144903
Xe	6.58877205655	9.53045279675	9.45881769712
Xe	9.11507020244	6.56597338652	8.46319916767
Xe	8.24287038388	10.2776920505	5.56781208718
Xe	12.9064963101	6.327788972	5.30167829983
Xe	13.3263241253	9.98601932365	8.77644810426
Xe	14.7938336577	5.40455578653	9.10801967146
Xe	15.7451779513	8.70247112848	6.70753967748
Xe	-0.916024413578	13.3219300685	6.2256878282
Xe	-0.90189022687	16.1234082294	10.2395225375
Xe	2.96865513504	11.5185208575	9.46228951801
Xe	3.29977291112	16.0381988211	5.18302637204
Xe	6.83749209073	12.2652380169	7.06731912159
Xe	6.31478798694	15.2030479077	9.78446429791
Xe	8.6105379806	11.1321355431	8.56294759234
Xe	9.06465892756	15.3059906124	7.15365830505
Xe	11.7050366226	12.5173087798	5.64677142466
Xe	11.1717716853	15.5228433914	10.274075974
Xe	15.4262961053	13.103209122	9.80712475922
Xe	15.9052399145	15.8540147499	6.00900066447
Xe	-0.529065719315	1.16523348781	11.9288635281
Xe	0.711750586972	3.46389628378	15.7601647689
Xe	2.04652021876	-0.275423960243	15.1435182918
Xe	2.62266082178	1.88342295054	12.689821201
Xe	6.85296940532	-0.459578631435	13.2197126102
Xe	6.3325250576	2.93969933395	16.0313534439
Xe	10.3418021863	0.722291998186	16.2895029285
Xe	8.89230198473	3.68528922746	11.4068037077
Xe	11.8833507351	0.981253407378	11.8915012442
Xe	11.1676057087	3.89426739044	15.5828507729
Xe	15.1695516048	0.237319581928	14.2629782586
Xe	15.2518256876	3.26684790612	11.772088683
Xe	-0.678015470627	5.72818190784	12.029737035
Xe	0.362846597134	9.13343573594	15.6555643693
Xe	3.75088350947	6.80251734846	15.1877919567
Xe	3.10560468058	8.23198851429	11.815482753
Xe	6.60967295774	4.93304836971	11.0650229384
Xe	5.96775169051	8.01130953552	14.1658153512
Xe	9.70851762362	6.22879869665	15.360413895
Xe	9.15353164483	9.62455186806	12.7734559469
Xe	12.8007453109	5.60791111653	13.0680662621
Xe	11.9336861945	9.22210648275	14.7476538591
Xe	14.4828253588	5.65296718671	16.512017699
Xe	14.7663604856	9.4894147	12.3518060004
Xe	-1.21652170772	11.2684489304	13.2924217652
Xe	-0.680186992254	14.7423994464	14.1188453974
Xe	3.3155116688	11.8180460386	15.8196293588
Xe	2.54365322748	16.0149648788	12.9249159108
Xe	6.69680350809	12.4932642323	12.835743203
Xe	5.12807536229	15.220779924	15.4943297128
Xe	9.33005426496	12.9636415732	14.1423092806
Xe	9.77782957323	15.7231257918	13.2445939464
Xe	13.1084996619	12.7344449144	11.3506005044
Xe	11.7367244573	14.3306279632	14.6624685117
Xe	15.1966806554	13.3085987506	15.2122656361
Xe	15.6024759903	14.738563888	12.0453331094
108
Frame: 3; Minimum total energy: -2.71621e-11erg; Total energy at start (perturbed): 1.15897e-09erg; Total energy now: 2.70553e-10erg; Discrepancy from stable energy: 1096.07%
Xe	0.90508693601	0.853828665513	-0.367013511463
Xe	0.760213020736	3.68225833367	2.6414321965
Xe	3.45097510283	0.90133992262	2.8630741478
Xe	2.50786928452	3.39471754336	-0.675622493063
Xe	5.68117728369	0.0349485486895	0.201255987709
Xe	7.16425803557	3.28200104676	2.9734679724
Xe	8.1699360321	0.0240571968513	2.52894681629
Xe	9.23981759673	2.05221664001	-0.12848431416
Xe	12.5519982683	-0.52983547247	-0.424620745958
Xe	12.6773467891	3.81487524366	2.53383056804
Xe	15.523957888	0.318108437624	3.1660770797
Xe	15.7884383598	3.10564214047	0.746479209033
Xe	1.10148206615	5.77245731213	-0.447093175763
Xe	0.754835519714	8.10318850345	3.73091364403
Xe	3.27031549454	6.76196888093	3.64449959674
Xe	3.8927313947	9.12384461709	0.416693549963
Xe	6.4331688505	6.09487485828	0.757786842609
Xe	6.137355202	9.62143013871	2.56407500562
Xe	9.00240027906	5.39949767608	3.12303707919
Xe	8.49393126044	10.2649680915	1.01317919737
Xe	12.8637043172	7.05616352067	0.374061868526
Xe	13.3106913393	9.22785858399	4.06660586632
Xe	15.0095732816	6.43532289466	3.72980414454
Xe	15.0332806294	8.58244744703	-0.58756048582
Xe	-0.676985437851	12.0330567648	-0.730235094741
Xe	-0.422981755133	16.5012750483	3.71374328484
Xe	2.27046272669	11.9198221062	2.30758240161
Xe	3.17998865672	14.8107611505	0.647020924684
Xe	4.95208091248	12.2850505401	0.899074115578
Xe	5.7234882224	15.3448521109	1.91083791988
Xe	8.31561984074	13.2161699436	2.79514846069
Xe	8.20463490045	14.7988071098	-0.240993292803
Xe	11.2346725786	13.4119981085	-0.956935388688
Xe	12.3243980307	15.3486921675	3.79080662726
Xe	16.1164478657	13.1710416085	3.20477064767
Xe	15.3609682381	14.3771154007	0.646670929831
Xe	0.0378512953738	-0.395087357367	7.18862960621
Xe	-0.168312545925	4.0498290307	9.90888041079
Xe	3.13496616898	0.902983319777	8.94964668962
Xe	3.92310863878	3.89901245832	5.01083326059
Xe	5.46868099759	-1.08487154334	6.44185086073
Xe	5.96145397557	2.15875767004	8.72300241315
Xe	10.1055829908	-0.872000627063	8.09204107974
Xe	10.258348988	2.02873149619	6.02878949517
Xe	13.3270282197	0.887950939918	5.16838717936
Xe	12.9699670017	3.18429977813	9.92369246015
Xe	15.0160896467	-0.762328627367	8.70315288625
Xe	14.3550269703	3.41912121317	7.07403804913
Xe	-0.951426346588	6.45966372598	6.11831397898
Xe	0.287353860721	9.31966539334	9.56427328326
Xe	3.97726806044	6.70550158467	8.2237091149
Xe	4.21257147979	9.27133895135	7.28075684341
Xe	5.72152263613	4.93684383721	6.99653547121
Xe	6.55917698626	9.50555936358	9.47448414705
Xe	9.11533967689	6.56602495754	8.46300691383
Xe	8.25229050555	10.2597666953	5.54980214505
Xe	12.7981483244	6.31947690963	5.36810053049
Xe	13.3248258463	9.98610324178	8.77679200426
Xe	14.8038228305	5.42814185997	9.11727573909
Xe	15.7326494964	8.71782279298	6.71190630922
Xe	-0.909121547397	13.3107538069	6.22879624835
Xe	-0.891471781609	16.1277425597	10.2323167898
Xe	2.96884531025	11.5207903393	9.46340213235
Xe	3.27338435477	16.0235429221	5.16878961251
Xe	6.76352985631	12.3134623841	7.02535620572
Xe	6.31452818427	15.2030983978	9.78476750995
Xe	8.68913610536	11.1171251593	8.59933552552
Xe	9.01551804951	15.1905645548	7.10893163638
Xe	11.704803657	12.5159315644	5.64763008615
Xe	11.1748710966	15.51922379	10.2749536704
Xe	15.444173642	13.0867487997	9.76302061547
Xe	15.894305103	15.8596417907	6.00975613427
Xe	-0.530014261844	1.1624515233	11.9286334494
Xe	0.631095353225	3.46042104975	15.6630367168
Xe	2.04600477911	-0.274017881555	15.1471449748
Xe	2.62549925106	1.88569080509	12.6882714532
Xe	6.8524932825	-0.459092656102	13.2195892655
Xe	6.3322323865	2.93993824272	16.0309468359
Xe	10.381622758	0.658704089014	16.182845331
Xe	8.94333276556	3.65178316315	11.4161523213
Xe	11.881289026	0.97694185263	11.8946665442
Xe	11.1841416297	3.86325758114	15.5859955684
Xe	15.1691386499	0.236975724454	14.2634886698
Xe	15.2601074026	3.26619286757	11.782612361
Xe	-0.685209673753	5.75454522898	12.061187908
Xe	0.363253728989	9.13221837692	15.6557819779
Xe	3.71392603641	6.78347041941	15.2027522974
Xe	3.10532124896	8.23202827227	11.8150186278
Xe	6.54318659011	4.96341701072	11.0574692782
Xe	5.99724248189	8.02836137983	14.1505695383
Xe	9.68910655275	6.25375383992	15.3582724927
Xe	9.152504933	9.62375415255	12.7720019628
Xe	12.8009294321	5.60901732112	13.0667126939
Xe	11.9346901918	9.22227477117	14.7488274127
Xe	14.4861187993	5.64549854135	16.504448808
Xe	14.7618970133	9.48542178815	12.3499528646
Xe	-1.21193525584	11.2700982416	13.2923182096
Xe	-0.666559094468	14.7462080208	14.125313665
Xe	3.3153536792	11.8178936653	15.8192778545
Xe	2.54500490869	16.009882342	12.9186536121
Xe	6.68424233915	12.4915448246	12.830108216
Xe	5.12839564763	15.2207691668	15.4946065498
Xe	9.31228728167	12.9370157501	14.1472741364
Xe	9.75653179972	15.7490390289	13.2267043167
Xe	13.0810571704	12.7286021135	11.3640019631
Xe	11.7769185529	14.3315977513	14.6666229811
Xe	15.1890866064	13.3053803412	15.216303151
Xe	15.5871785372	14.7516098396	12.064550332
108
Frame: 4; Minimum total energy: -2.71621e-11erg; Total energy at start (perturbed): 1.15897e-09erg; Total energy now: 1.3673e-10erg; Discrepancy from stable energy: 603.387%
Xe	0.879909187871	0.818061854817	-0.351755448054
Xe	0.758333720224	3.68199624429	2.64397374763
Xe	3.44925548766	0.900004418825	2.86417521111
Xe	2.65621671425	3.30445137532	-0.612347880626
Xe	5.67700890884	0.0368625801127	0.191495018769
Xe	7.09077289211	3.20019572555	2.97136776531
Xe	8.17538346087	0.0150681682902	2.53589312782
Xe	9.18425281977	2.11745279736	-0.0401492438324
Xe	12.5737024048	-0.543321051646	-0.406465240847
Xe	12.6738244333	3.81216352533	2.5330765359
Xe	15.5406048934	0.315730077204	3.13900292614
Xe	15.789853144	3.10588413935	0.743894911621
Xe	1.03802572747	5.87229618157	-0.429110836343
Xe	0.676451372016	8.14385725936	3.72770256354
Xe	3.33165165315	6.73248447445	3.63698691528
Xe	3.87354769357	9.11083231575	0.398428599532
Xe	6.43018441368	6.09612717873	0.753160072969
Xe	6.09143483189	9.60262233727	2.61447491892
Xe	9.06529901178	5.46803711635	3.13181665322
Xe	8.54399904407	10.2744267597	0.971311897465
Xe	12.7685207852	7.01243196631	0.42080828736
Xe	13.3049400639	9.24899768	4.0591326714
Xe	15.1051298542	6.4314246317	3.63903814881
Xe	15.101371825	8.64131444296	-0.615370885922
Xe	-0.674655565759	12.0318479866	-0.729398502303
Xe	-0.404358431876	16.4994031815	3.69736323229
Xe	2.23556920305	11.9120773107	2.32566700789
Xe	3.09589051846	14.8226537508	0.611092375003
Xe	4.9887999168	12.2669660315	0.879508341423
Xe	5.76706832882	15.3664526984	1.94900571767
Xe	8.31986305565	13.2145774691	2.80451384113
Xe	8.20453442509	14.8029264782	-0.252721372946
Xe	11.2321298655	13.3939218652	-0.917483644775
Xe	12.3252011851	15.3531188423	3.78721874365
Xe	16.126543283	13.1441423547	3.23853479704
Xe	15.3438543299	14.4022418147	0.591060538342
Xe	0.041410219308	-0.391275554047	7.1878328555
Xe	-0.143642904088	3.981263306	9.81168409536
Xe	3.10839936927	0.892473491782	8.95186613704
Xe	3.87534445643	3.85849262018	4.96192790442
Xe	5.52851234488	-1.04840195664	6.47722103046
Xe	5.98350842148	2.15622498547	8.72613234365
Xe	10.1487854147	-0.762735757906	8.1239506456
Xe	10.2505805714	2.03403203227	6.02855202164
Xe	13.3008582729	0.8840129812	5.183210901
Xe	12.8974139767	3.16219590122	9.89923538124
Xe	15.0017742577	-0.752482277278	8.70486176341
Xe	14.3570732573	3.37583029268	7.0102140885
Xe	-0.913587179709	6.39601895139	6.11441240115
Xe	0.281574255832	9.3164283287	9.56358541989
Xe	3.88343854055	6.62735919323	8.32059859907
Xe	4.21580437554	9.37688582328	7.21494749747
Xe	5.8338093354	4.88783575206	6.98019012808
Xe	6.48516617212	9.4441152514	9.51622072138
Xe	9.11633681763	6.56618363511	8.46239263347
Xe	8.27772450828	10.211861075	5.50284806744
Xe	12.6763138395	6.30188529977	5.44612060529
Xe	13.3188333928	9.98655154605	8.77835050882
Xe	14.834416192	5.50039873617	9.14378621476
Xe	15.6958072584	8.7640590528	6.72438871679
Xe	-0.885250122078	13.2732663927	6.2402019496
Xe	-0.85628740848	16.1409323399	10.2091383199
Xe	2.96926972967	11.5294957068	9.46795041961
Xe	3.19980303908	15.9823972254	5.129164549
Xe	6.63411370642	12.4014532094	6.97190816187
Xe	6.31356359426	15.2033429436	9.78596849007
Xe	8.84122869373	11.1173983686	8.65032568213
Xe	8.96253249729	15.0650051944	7.05836878018
Xe	11.7040135683	12.510787789	5.65077069282
Xe	11.1854129607	15.5062704726	10.2761366875
Xe	15.4936669037	13.0415164739	9.64206118109
Xe	15.856653967	15.8776013232	6.0119169331
Xe	-0.533216226702	1.15194694526	11.927815355
Xe	0.54315498674	3.45869880389	15.5571085799
Xe	2.04435534933	-0.269423864435	15.159648288
Xe	2.63602541888	1.89397723549	12.6825027485
Xe	6.85039588083	-0.457082294299	13.2191371745
Xe	6.33120530877	2.94081446868	16.0293115434
Xe	10.4068110427	0.589989713162	16.051168576
Xe	9.04181223098	3.58754232761	11.4341882506
Xe	11.8737183318	0.960480294477	11.9067754151
Xe	11.2290004949	3.78013780015	15.5950084369
Xe	15.1675827087	0.235672801654	14.2654237992
Xe	15.2849788233	3.26413479135	11.8162320261
Xe	-0.701447472326	5.81893216321	12.1370582669
Xe	0.364743520195	9.12774930898	15.6565335675
Xe	3.62102991122	6.73507006084	15.2407424847
Xe	3.10434393239	8.23215139396	11.8135307905
Xe	6.41593225828	5.02255402294	11.0438350473
Xe	6.07183714419	8.0713373069	14.1125530724
Xe	9.63585567708	6.32143916564	15.3526377091
Xe	9.14886261401	9.62058438058	12.7663920404
Xe	12.8014230237	5.61304760781	13.0618584715
Xe	11.9384204861	9.22294561935	14.7531977972
Xe	14.4969556288	5.62140525991	16.4799866567
Xe	14.7460416539	9.4711130931	12.3433018242
Xe	-1.19553742432	11.2759678473	13.2917065345
Xe	-0.618649819523	14.7592042407	14.1485139418
Xe	3.31475505183	11.8173245547	15.817952987
Xe	2.54993891126	15.9918956261	12.8962192431
Xe	6.63640357512	12.4853456174	12.8083931369
Xe	5.12957765367	15.2207359153	15.4956362554
Xe	9.27249890515	12.8636680736	14.1676781001
Xe	9.69734258529	15.8214587598	13.1801218484
Xe	13.0053911978	12.7110310419	11.4007089576
Xe	11.8894609046	14.3389721523	14.6666437639
Xe	15.1631560581	13.2940473103	15.230669243
Xe	15.5314662371	14.7859261038	12.1126659068
108
Frame: 5; Minimum total energy: -2.71621e-11erg; Total energy at start (perturbed): 1.15897e-09erg; Total energy now: 5.93773e-11erg; Discrepancy from stable energy: 318.604%
Xe	0.802704806214	0.729643626216	-0.307870908914
Xe	0.751639920058	3.68162218331	2.65068743742
Xe	3.44343863063	0.893277773529	2.86672390283
Xe	2.835089891	3.2657368384	-0.562847802303
Xe	5.66406108567	0.0426355563871	0.160383307503
Xe	6.99043390045	3.10622713298	2.9734620771
Xe	8.19410680895	-0.0211702592349	2.55903328231
Xe	9.13963174032	2.1853816613	0.0358248867547
Xe	12.6262800568	-0.574215712881	-0.358954589388
Xe	12.6630859058	3.80345244556	2.53212073954
Xe	15.5778543098	0.312705758031	3.06912938872
Xe	15.7944708054	3.10697981343	0.735052645849
Xe	0.973503580664	5.97295638029	-0.409032075278
Xe	0.556417521085	8.21760462484	3.71062917009
Xe	3.42699667732	6.7090977663	3.61265720169
Xe	3.81688386464	9.07119205787	0.343034051889
Xe	6.4223413127	6.09872398265	0.740348174642
Xe	6.02609053439	9.56201400625	2.72606799368
Xe	9.14985075813	5.55726825421	3.14655849341
Xe	8.63549687655	10.2842110018	0.890444157902
Xe	12.6327737175	6.96707102843	0.492611225927
Xe	13.2898475687	9.29671736419	4.03919449982
Xe	15.1940533552	6.41393545637	3.54160118064
Xe	15.1918685906	8.72793737472	-0.645955176829
Xe	-0.667067958534	12.0281797726	-0.726428774305
Xe	-0.350719326678	16.4902093679	3.65304039062
Xe	2.15279402396	11.8920943345	2.3705574823
Xe	2.9446708896	14.8580160242	0.54496208162
Xe	5.07308855117	12.2372367415	0.828814037709
Xe	5.82283736853	15.411796837	2.02759086178
Xe	8.33491284496	13.2073981677	2.83404692144
Xe	8.20328195876	14.8160422321	-0.29050094099
Xe	11.2269052688	13.3464686888	-0.82174699988
Xe	12.3276539092	15.3671185593	3.7757024313
Xe	16.140003754	13.0861612954	3.29167875221
Xe	15.3061604655	14.4569547922	0.479724921673
Xe	0.051872832021	-0.379137175832	7.18347334679
Xe	-0.107851698027	3.90532352017	9.68886556197
Xe	3.03725230668	0.864694387301	8.95790812273
Xe	3.78356785226	3.76041377515	4.88698388495
Xe	5.61943126966	-0.994222386848	6.52786532991
Xe	6.04357979641	2.1359540828	8.74211441527
Xe	10.1777577082	-0.643882465878	8.13430680462
Xe	10.2225539833	2.05526112995	6.02532100938
Xe	13.2336889587	0.855315408049	5.20926082934
Xe	12.7564586628	3.13693079817	9.83431864285
Xe	14.9572010832	-0.720815046123	8.71405522697
Xe	14.3773304859	3.31869710382	6.90265465705
Xe	-0.845343197053	6.27253859645	6.12213095343
Xe	0.263091381363	9.30618117185	9.56120103796
Xe	3.73230287748	6.56941485512	8.45135285872
Xe	4.2042625447	9.47579820356	7.09778743357
Xe	6.02877220316	4.85254541658	6.95087733054
Xe	6.4060451561	9.36840116638	9.58705345355
Xe	9.11976100686	6.56672874473	8.46109320158
Xe	8.31856008266	10.1357222629	5.43040709737
Xe	12.5579072922	6.2695222308	5.52689766014
Xe	13.2948001434	9.98946131959	8.78644163823
Xe	14.8895488913	5.63444700469	9.18367416163
Xe	15.6419097073	8.84314400217	6.73975717369
Xe	-0.823197706029	13.1869962966	6.27577171331
Xe	-0.771616274062	16.1610291821	10.163673208
Xe	2.9690231136	11.5586975412	9.48496018441
Xe	3.09025197437	15.9189950333	5.07073144303
Xe	6.49279220202	12.4922143835	6.94322683496
Xe	6.31051355032	15.2044505395	9.790260001
Xe	9.00888644364	11.1460995911	8.69751817503
Xe	8.91941268996	14.9526723442	7.00719428201
Xe	11.701857343	12.4943808625	5.66060306466
Xe	11.215129625	15.4704534811	10.268754031
Xe	15.5665821139	12.9744349798	9.46663826575
Xe	15.762134912	15.9102460123	6.01192581463
Xe	-0.539977692376	1.11640914537	11.9253740435
Xe	0.460586577829	3.45746641569	15.4568016882
Xe	2.04184104779	-0.2608437751	15.1899549535
Xe	2.66922243847	1.91958911752	12.6644724138
Xe	6.83970389544	-0.448151933168	13.2178066557
Xe	6.32831721529	2.9436586643	16.023367641
Xe	10.3857417458	0.51467680609	15.893582618
Xe	9.13814949698	3.52498824707	11.4524479472
Xe	11.850800492	0.904319462087	11.948391215
Xe	11.2951281332	3.67314099403	15.6089706147
Xe	15.162315986	0.231159513321	14.2721214005